
*************** JDFTx 1.4.2  ***************

Start date and time: Mon Jul  1 18:51:23 2019
Executable jdftx with command-line: -ni testgeometry.in
Running on hosts (process indices):  dhcp-ccc-7755.eduroam.cornell.edu (0)
Divided in process groups (process indices):  0 (0)
Resource initialization completed at t[s]:      0.00
Run totals: 1 processes, 12 threads, 0 GPUs


Input parsed successfully to the following command list (including defaults):

basis kpoint-dependent
coords-type Lattice
core-overlap-check vector
coulomb-interaction Periodic
davidson-band-ratio 1.1
dump End State
dump-name $INPUT.$VAR
elec-cutoff 20
elec-eigen-algo Davidson
elec-ex-corr gga-PBE
electronic-minimize  \
	dirUpdateScheme      FletcherReeves \
	linminMethod         DirUpdateRecommended \
	nIterations          100 \
	history              15 \
	knormThreshold       0 \
	energyDiffThreshold  1e-08 \
	nEnergyDiff          2 \
	alphaTstart          1 \
	alphaTmin            1e-10 \
	updateTestStepSize   yes \
	alphaTreduceFactor   0.1 \
	alphaTincreaseFactor 3 \
	nAlphaAdjustMax      3 \
	wolfeEnergy          0.0001 \
	wolfeGradient        0.9 \
	fdTest               no
exchange-regularization WignerSeitzTruncated
fluid None
fluid-ex-corr lda-TF lda-PZ
fluid-gummel-loop 10 1.000000e-05
fluid-minimize  \
	dirUpdateScheme      PolakRibiere \
	linminMethod         DirUpdateRecommended \
	nIterations          100 \
	history              15 \
	knormThreshold       0 \
	energyDiffThreshold  0 \
	nEnergyDiff          2 \
	alphaTstart          1 \
	alphaTmin            1e-10 \
	updateTestStepSize   yes \
	alphaTreduceFactor   0.1 \
	alphaTincreaseFactor 3 \
	nAlphaAdjustMax      3 \
	wolfeEnergy          0.0001 \
	wolfeGradient        0.9 \
	fdTest               no
fluid-solvent H2O 55.338 ScalarEOS \
	epsBulk 78.4 \
	pMol 0.92466 \
	epsInf 1.77 \
	Pvap 1.06736e-10 \
	sigmaBulk 4.62e-05 \
	Rvdw 2.61727 \
	Res 1.42
forces-output-coords Positions
ion N   0.211322379136950   0.750000000000000   0.625000000000000 1
ion O   0.261207171100514   0.750000000000000   0.625000000000000 1
ion O   0.000000000000000   0.277510000000000   0.888750000000000 1
ion O   0.000000000000000   0.722490000000000   0.888750000000000 1
ion O   0.000000000000000   0.222490000000000   0.361250000000000 1
ion O   0.000000000000000   0.777510000000000   0.361250000000000 1
ion O   0.055620000000000   0.500000000000000   0.111250000000000 1
ion O   0.055620000000000   0.000000000000000   0.138750000000000 1
ion O   0.069380000000000   0.000000000000000   0.611250000000000 1
ion O   0.069380000000000   0.500000000000000   0.638750000000000 1
ion O   0.125000000000000   0.777510000000000   0.388750000000000 1
ion O   0.125000000000000   0.222490000000000   0.388750000000000 1
ion O   0.125000000000000   0.722490000000000   0.861250000000000 1
ion O   0.125000000000000   0.277510000000000   0.861250000000000 1
ion O   0.875000000000000   0.777510000000000   0.388750000000000 1
ion O   0.875000000000000   0.222490000000000   0.388750000000000 1
ion O   0.875000000000000   0.722490000000000   0.861250000000000 1
ion O   0.875000000000000   0.277510000000000   0.861250000000000 1
ion O   0.930620000000000   0.000000000000000   0.611250000000000 1
ion O   0.930620000000000   0.500000000000000   0.638750000000000 1
ion O   0.944380000000000   0.000000000000000   0.138750000000000 1
ion O   0.944380000000000   0.500000000000000   0.111250000000000 1
ion Co   0.000000000000000   0.000000000000000   0.750000000000000 1
ion Co   0.000000000000000   0.250000000000000   0.125000000000000 1
ion Co   0.000000000000000   0.750000000000000   0.125000000000000 1
ion Co   0.000000000000000   0.500000000000000   0.500000000000000 1
ion Co   0.062500000000000   0.000000000000000   0.375000000000000 1
ion Co   0.062500000000000   0.500000000000000   0.875000000000000 1
ion Co   0.125000000000000   0.500000000000000   0.250000000000000 1
ion Co   0.125000000000000   0.750000000000000   0.625000000000000 1
ion Co   0.125000000000000   0.250000000000000   0.625000000000000 1
ion Co   0.125000000000000   0.000000000000000   0.000000000000000 1
ion Co   0.875000000000000   0.500000000000000   0.250000000000000 1
ion Co   0.875000000000000   0.750000000000000   0.625000000000000 1
ion Co   0.875000000000000   0.250000000000000   0.625000000000000 1
ion Co   0.875000000000000   0.000000000000000   0.000000000000000 1
ion Co   0.937500000000000   0.500000000000000   0.875000000000000 1
ion Co   0.937500000000000   0.000000000000000   0.375000000000000 1
ion-species GBRV/$ID_pbe.uspp
ion-width 0
ionic-minimize  \
	dirUpdateScheme      L-BFGS \
	linminMethod         DirUpdateRecommended \
	nIterations          0 \
	history              15 \
	knormThreshold       0.0001 \
	energyDiffThreshold  1e-06 \
	nEnergyDiff          2 \
	alphaTstart          1 \
	alphaTmin            1e-10 \
	updateTestStepSize   yes \
	alphaTreduceFactor   0.1 \
	alphaTincreaseFactor 3 \
	nAlphaAdjustMax      3 \
	wolfeEnergy          0.0001 \
	wolfeGradient        0.9 \
	fdTest               no
kpoint   0.000000000000   0.000000000000   0.000000000000  1.00000000000000
kpoint-folding 1 1 1 
latt-move-scale 1 1 1
latt-scale 1 1 1 
lattice Triclinic 43.5641 10.891 15.4022 90 90 90
lattice-minimize  \
	dirUpdateScheme      L-BFGS \
	linminMethod         DirUpdateRecommended \
	nIterations          0 \
	history              15 \
	knormThreshold       0 \
	energyDiffThreshold  1e-06 \
	nEnergyDiff          2 \
	alphaTstart          1 \
	alphaTmin            1e-10 \
	updateTestStepSize   yes \
	alphaTreduceFactor   0.1 \
	alphaTincreaseFactor 3 \
	nAlphaAdjustMax      3 \
	wolfeEnergy          0.0001 \
	wolfeGradient        0.9 \
	fdTest               no
lcao-params -1 1e-06 0.001
pcm-variant GLSSA13
spintype no-spin
subspace-rotation-factor 1 yes
symmetries automatic
symmetry-threshold 0.0001



---------- Setting up symmetries ----------

Found 8 point-group symmetries of the bravais lattice
Found 2 space-group symmetries with basis
Applied RMS atom displacement 1.78499e-16 bohrs to make symmetries exact.

---------- Initializing the Grid ----------
R = 
[    43.5641          0          0  ]
[          0     10.891          0  ]
[          0          0    15.4022  ]
unit cell volume = 7307.7
G =
[   0.144229          0          0  ]
[          0   0.576914          0  ]
[          0          0    0.40794  ]
Minimum fftbox size, Smin = [  176  44  64  ]
Chosen fftbox size, S = [  180  48  64  ]

---------- Exchange Correlation functional ----------
Initalized PBE GGA exchange.
Initalized PBE GGA correlation.

---------- Setting up pseudopotentials ----------
Width of ionic core gaussian charges (only for fluid interactions / plotting) set to 0

Reading pseudopotential file '/Users/juanmendezvalderrama/Documents/JDFTX/build/pseudopotentials/GBRV/n_pbe.uspp':
  Title: N.  Created by USPP 7.3.6 on 3-2-2014
  Reference state energy: -9.763716.  5 valence electrons in orbitals:
    |200>  occupation: 2  eigenvalue: -0.681964
    |210>  occupation: 3  eigenvalue: -0.260726
  lMax: 1  lLocal: 2  QijEcut: 6
  4 projectors sampled on a log grid with 491 points:
    l: 0  eig: -0.681964  rCut: 1.15
    l: 0  eig: 0.000000  rCut: 1.15
    l: 1  eig: -0.260729  rCut: 1.2
    l: 1  eig: 0.500000  rCut: 1.2
  Partial core density with radius 0.8
  Transforming core density to a uniform radial grid of dG=0.02 with 1157 points.
  Transforming local potential to a uniform radial grid of dG=0.02 with 1157 points.
  Transforming nonlocal projectors to a uniform radial grid of dG=0.02 with 432 points.
  Transforming density augmentations to a uniform radial grid of dG=0.02 with 1157 points.
  Transforming atomic orbitals to a uniform radial grid of dG=0.02 with 432 points.
  Core radius for overlap checks: 1.20 bohrs.

Reading pseudopotential file '/Users/juanmendezvalderrama/Documents/JDFTX/build/pseudopotentials/GBRV/o_pbe.uspp':
  Title: O.  Created by USPP 7.3.6 on 3-2-2014
  Reference state energy: -15.894388.  6 valence electrons in orbitals:
    |200>  occupation: 2  eigenvalue: -0.878823
    |210>  occupation: 4  eigenvalue: -0.332131
  lMax: 2  lLocal: 2  QijEcut: 6
  5 projectors sampled on a log grid with 511 points:
    l: 0  eig: -0.878823  rCut: 1.25
    l: 0  eig: 0.000000  rCut: 1.25
    l: 1  eig: -0.332132  rCut: 1.25
    l: 1  eig: 0.000000  rCut: 1.25
    l: 2  eig: 1.000000  rCut: 1.25
  Partial core density with radius 0.7
  Transforming core density to a uniform radial grid of dG=0.02 with 1157 points.
  Transforming local potential to a uniform radial grid of dG=0.02 with 1157 points.
  Transforming nonlocal projectors to a uniform radial grid of dG=0.02 with 432 points.
  Transforming density augmentations to a uniform radial grid of dG=0.02 with 1157 points.
  Transforming atomic orbitals to a uniform radial grid of dG=0.02 with 432 points.
  Core radius for overlap checks: 1.25 bohrs.

Reading pseudopotential file '/Users/juanmendezvalderrama/Documents/JDFTX/build/pseudopotentials/GBRV/co_pbe.uspp':
  Title: Co.  Created by USPP 7.3.6 on 3-2-2014
  Reference state energy: -148.607580.  17 valence electrons in orbitals:
    |300>  occupation: 2  eigenvalue: -4.087341
    |310>  occupation: 6  eigenvalue: -2.736774
    |320>  occupation: 7  eigenvalue: -0.623250
    |400>  occupation: 1  eigenvalue: -0.469021
    |410>  occupation: 0  eigenvalue: -0.274428
  lMax: 2  lLocal: 3  QijEcut: 6
  6 projectors sampled on a log grid with 609 points:
    l: 0  eig: -4.087343  rCut: 1.5
    l: 0  eig: -0.469023  rCut: 1.5
    l: 1  eig: -2.736775  rCut: 1.5
    l: 1  eig: -0.274432  rCut: 1.5
    l: 2  eig: -0.623250  rCut: 1.55
    l: 2  eig: -1.000000  rCut: 1.55
  Partial core density with radius 0.65
  Transforming core density to a uniform radial grid of dG=0.02 with 1157 points.
  Transforming local potential to a uniform radial grid of dG=0.02 with 1157 points.
  Transforming nonlocal projectors to a uniform radial grid of dG=0.02 with 432 points.
  Transforming density augmentations to a uniform radial grid of dG=0.02 with 1157 points.
  Transforming atomic orbitals to a uniform radial grid of dG=0.02 with 432 points.
  Core radius for overlap checks: 1.55 bohrs.

Initialized 3 species with 38 total atoms.

Folded 1 k-points by 1x1x1 to 1 k-points.

---------- Setting up k-points, bands, fillings ----------
No reducable k-points. 
Computing the number of bands and number of electrons
Calculating initial fillings.
Turning on subspace rotations due to non-scalar fillings.
nElectrons: 403.000000   nBands: 202   nStates: 1

----- Setting up reduced wavefunction bases (one per k-point) -----
average nbasis = 31097.000 , ideal nbasis = 31219.066

---------- Setting up ewald sum ----------
Optimum gaussian width for ewald sums = 4.222209 bohr.
Real space sum over 495 unit cells with max indices [  2  5  4  ]
Reciprocal space sum over 5775 terms with max indices [  17  5  7  ]

---------- Allocating electronic variables ----------
Skipped wave function initialization.


---- Citations for features of the code used in this run ----

   Software package:
      R. Sundararaman, K. Letchworth-Weaver, K.A. Schwarz, D. Gunceler, Y. Ozhabes and T.A. Arias, 'JDFTx: software for joint density-functional theory', SoftwareX 6, 278 (2017)

   gga-PBE exchange-correlation functional:
      J.P. Perdew, K. Burke and M. Ernzerhof, Phys. Rev. Lett. 77, 3865 (1996)

   Pseudopotentials:
      KF Garrity, JW Bennett, KM Rabe and D Vanderbilt, Comput. Mater. Sci. 81, 446 (2014)

   Total energy minimization:
      T.A. Arias, M.C. Payne and J.D. Joannopoulos, Phys. Rev. Lett. 69, 1077 (1992)

This list may not be complete. Please suggest additional citations or
report any other bugs at https://github.com/shankar1729/jdftx/issues

Dry run successful: commands are valid and initialization succeeded.
End date and time: Mon Jul  1 18:51:24 2019  (Duration: 0-0:00:01.32)
Done!
