--------------------------------------------------------------------------
Initialization of PSM library failed.

  Error: PSM is in the finalized state
--------------------------------------------------------------------------
[node2014][[31915,1],0][btl_openib.c:880:mca_btl_openib_add_procs] could not prepare openib device for use
--------------------------------------------------------------------------
The OpenFabrics (openib) BTL failed to initialize while trying to
allocate some locked memory.  This typically can indicate that the
memlock limits are set too low.  For most HPC installations, the
memlock limits should be set to "unlimited".  The failure occured
here:

  Local host:    node2014
  OMPI source:   btl_openib.c:753
  Function:      ompi_free_list_init_ex_new()
  Device:        qib0
  Memlock limit: 65536

You may need to consult with your system administrator to get this
problem fixed.  This FAQ entry on the Open MPI web site may also be
helpful:

    http://www.open-mpi.org/faq/?category=openfabrics#ib-locked-pages
--------------------------------------------------------------------------

*************** JDFTx 1.4.2 (git hash 74b6e54) ***************

Start date and time: Sat Jun  1 00:15:40 2019
Executable /home/jfm343/JDFTXDIR/build/jdftx with command-line: -i latticeOpt.in
Running on hosts (process indices):  node2014.physics.cornell.edu (0)
Divided in process groups (process indices):  0 (0)
Resource initialization completed at t[s]:      0.00
Run totals: 1 processes, 12 threads, 0 GPUs


Input parsed successfully to the following command list (including defaults):

basis kpoint-dependent
coords-type Lattice
core-overlap-check vector
coulomb-interaction Periodic
davidson-band-ratio 1.1
dump Ionic State ElecDensity
dump-name Si.$VAR
elec-cutoff 20 100
elec-eigen-algo Davidson
elec-ex-corr gga-PBE
electronic-minimize  \
	dirUpdateScheme      FletcherReeves \
	linminMethod         DirUpdateRecommended \
	nIterations          100 \
	history              15 \
	knormThreshold       0 \
	energyDiffThreshold  1e-08 \
	nEnergyDiff          2 \
	alphaTstart          1 \
	alphaTmin            1e-10 \
	updateTestStepSize   yes \
	alphaTreduceFactor   0.1 \
	alphaTincreaseFactor 3 \
	nAlphaAdjustMax      3 \
	wolfeEnergy          0.0001 \
	wolfeGradient        0.9 \
	fdTest               no
electronic-scf  \
	nIterations	50 \
	energyDiffThreshold	1e-08 \
	residualThreshold	1e-07 \
	mixFraction	0.5 \
	qMetric	0.8 \
	history	10 \
	nEigSteps	2 \
	eigDiffThreshold	1e-08 \
	mixedVariable	Density \
	qKerker	0.8 \
	qKappa	-1 \
	verbose	no \
	mixFractionMag	1.5
exchange-regularization WignerSeitzTruncated
fluid None
fluid-ex-corr lda-TF lda-PZ
fluid-gummel-loop 10 1.000000e-05
fluid-minimize  \
	dirUpdateScheme      PolakRibiere \
	linminMethod         DirUpdateRecommended \
	nIterations          100 \
	history              15 \
	knormThreshold       0 \
	energyDiffThreshold  0 \
	nEnergyDiff          2 \
	alphaTstart          1 \
	alphaTmin            1e-10 \
	updateTestStepSize   yes \
	alphaTreduceFactor   0.1 \
	alphaTincreaseFactor 3 \
	nAlphaAdjustMax      3 \
	wolfeEnergy          0.0001 \
	wolfeGradient        0.9 \
	fdTest               no
fluid-solvent H2O 55.338 ScalarEOS \
	epsBulk 78.4 \
	pMol 0.92466 \
	epsInf 1.77 \
	Pvap 1.06736e-10 \
	sigmaBulk 4.62e-05 \
	Rvdw 2.61727 \
	Res 1.42 \
	tauNuc 343133 \
	omegaEl 0.55124 \
	gammaEl 0.257245
forces-output-coords Positions
ion Co   0.125000000000000   0.125000000000000   0.125000000000000 1
ion Co   0.500000000000000   0.500000000000000   0.500000000000000 1
ion Co   0.125000000000000   0.625000000000000   0.125000000000000 1
ion Co   0.125000000000000   0.125000000000000   0.625000000000000 1
ion Co   0.750000000000000   0.750000000000000   0.750000000000000 1
ion Co   0.625000000000000   0.125000000000000   0.125000000000000 1
ion O   0.361250000000000   0.361250000000000   0.361250000000000 1
ion O   0.333740000000000   0.888750000000000   0.888750000000000 1
ion O   0.361250000000000   0.361250000000000   0.916260000000000 1
ion O   0.916260000000000   0.361250000000000   0.361250000000000 1
ion O   0.361250000000000   0.916260000000000   0.361250000000000 1
ion O   0.888750000000000   0.888750000000000   0.333740000000000 1
ion O   0.888750000000000   0.888750000000000   0.888750000000000 1
ion O   0.888750000000000   0.333740000000000   0.888750000000000 1
ion-species GBRV/$ID_pbe.uspp
ion-width 0
ionic-minimize  \
	dirUpdateScheme      L-BFGS \
	linminMethod         DirUpdateRecommended \
	nIterations          0 \
	history              15 \
	knormThreshold       0.0001 \
	energyDiffThreshold  1e-06 \
	nEnergyDiff          2 \
	alphaTstart          1 \
	alphaTmin            1e-10 \
	updateTestStepSize   yes \
	alphaTreduceFactor   0.1 \
	alphaTincreaseFactor 3 \
	nAlphaAdjustMax      3 \
	wolfeEnergy          0.0001 \
	wolfeGradient        0.9 \
	fdTest               no
kpoint   0.000000000000   0.000000000000   0.000000000000  1.00000000000000
kpoint-folding 8 8 8 
latt-move-scale 1 1 1
latt-scale 1 1 1 
lattice Triclinic 10.8905 10.8905 10.8905 60 60 60
lattice-minimize  \
	dirUpdateScheme      L-BFGS \
	linminMethod         DirUpdateRecommended \
	nIterations          10 \
	history              15 \
	knormThreshold       0 \
	energyDiffThreshold  1e-06 \
	nEnergyDiff          2 \
	alphaTstart          1 \
	alphaTmin            1e-10 \
	updateTestStepSize   yes \
	alphaTreduceFactor   0.1 \
	alphaTincreaseFactor 3 \
	nAlphaAdjustMax      3 \
	wolfeEnergy          0.0001 \
	wolfeGradient        0.9 \
	fdTest               no
lcao-params -1 1e-06 0.001
pcm-variant GLSSA13
spintype no-spin
subspace-rotation-factor 1 yes
symmetries automatic
symmetry-threshold 0.0001



---------- Setting up symmetries ----------

Found 48 point-group symmetries of the bravais lattice
Found 48 space-group symmetries with basis
Applied RMS atom displacement 5.04133e-05 bohrs to make symmetries exact.

---------- Initializing the Grid ----------
R = 
[    10.8905    5.44526    5.44526  ]
[          0    9.43146    3.14382  ]
[          0          0    8.89207  ]
unit cell volume = 913.335
G =
[   0.576941  -0.333097  -0.235535  ]
[          0   0.666194  -0.235535  ]
[          0          0   0.706606  ]
Minimum fftbox size, Smin = [  52  52  52  ]
Chosen fftbox size, S = [  54  54  54  ]

---------- Initializing tighter grid for wavefunction operations ----------
R = 
[    10.8905    5.44526    5.44526  ]
[          0    9.43146    3.14382  ]
[          0          0    8.89207  ]
unit cell volume = 913.335
G =
[   0.576941  -0.333097  -0.235535  ]
[          0   0.666194  -0.235535  ]
[          0          0   0.706606  ]
Minimum fftbox size, Smin = [  44  44  44  ]
Chosen fftbox size, S = [  48  48  48  ]

---------- Exchange Correlation functional ----------
Initalized PBE GGA exchange.
Initalized PBE GGA correlation.

---------- Setting up pseudopotentials ----------
Width of ionic core gaussian charges (only for fluid interactions / plotting) set to 0

Reading pseudopotential file '/home/jfm343/JDFTXDIR/build/pseudopotentials/GBRV/co_pbe.uspp':
  Title: Co.  Created by USPP 7.3.6 on 3-2-2014
  Reference state energy: -148.607580.  17 valence electrons in orbitals:
    |300>  occupation: 2  eigenvalue: -4.087341
    |310>  occupation: 6  eigenvalue: -2.736774
    |320>  occupation: 7  eigenvalue: -0.623250
    |400>  occupation: 1  eigenvalue: -0.469021
    |410>  occupation: 0  eigenvalue: -0.274428
  lMax: 2  lLocal: 3  QijEcut: 6
  6 projectors sampled on a log grid with 609 points:
    l: 0  eig: -4.087343  rCut: 1.5
    l: 0  eig: -0.469023  rCut: 1.5
    l: 1  eig: -2.736775  rCut: 1.5
    l: 1  eig: -0.274432  rCut: 1.5
    l: 2  eig: -0.623250  rCut: 1.55
    l: 2  eig: -1.000000  rCut: 1.55
  Partial core density with radius 0.65
  Transforming core density to a uniform radial grid of dG=0.02 with 1832 points.
  Transforming local potential to a uniform radial grid of dG=0.02 with 1832 points.
  Transforming nonlocal projectors to a uniform radial grid of dG=0.02 with 432 points.
  Transforming density augmentations to a uniform radial grid of dG=0.02 with 1832 points.
  Transforming atomic orbitals to a uniform radial grid of dG=0.02 with 432 points.
  Core radius for overlap checks: 1.55 bohrs.

Reading pseudopotential file '/home/jfm343/JDFTXDIR/build/pseudopotentials/GBRV/o_pbe.uspp':
  Title: O.  Created by USPP 7.3.6 on 3-2-2014
  Reference state energy: -15.894388.  6 valence electrons in orbitals:
    |200>  occupation: 2  eigenvalue: -0.878823
    |210>  occupation: 4  eigenvalue: -0.332131
  lMax: 2  lLocal: 2  QijEcut: 6
  5 projectors sampled on a log grid with 511 points:
    l: 0  eig: -0.878823  rCut: 1.25
    l: 0  eig: 0.000000  rCut: 1.25
    l: 1  eig: -0.332132  rCut: 1.25
    l: 1  eig: 0.000000  rCut: 1.25
    l: 2  eig: 1.000000  rCut: 1.25
  Partial core density with radius 0.7
  Transforming core density to a uniform radial grid of dG=0.02 with 1832 points.
  Transforming local potential to a uniform radial grid of dG=0.02 with 1832 points.
  Transforming nonlocal projectors to a uniform radial grid of dG=0.02 with 432 points.
  Transforming density augmentations to a uniform radial grid of dG=0.02 with 1832 points.
  Transforming atomic orbitals to a uniform radial grid of dG=0.02 with 432 points.
  Core radius for overlap checks: 1.25 bohrs.

Initialized 2 species with 14 total atoms.

Folded 1 k-points by 8x8x8 to 512 k-points.

---------- Setting up k-points, bands, fillings ----------
Reduced to 29 k-points under symmetry. 
Computing the number of bands and number of electrons
Calculating initial fillings.
nElectrons: 150.000000   nBands: 75   nStates: 29

----- Setting up reduced wavefunction bases (one per k-point) -----
average nbasis = 3901.908 , ideal nbasis = 3901.837

---------- Setting up ewald sum ----------
Optimum gaussian width for ewald sums = 2.528799 bohr.
Real space sum over 729 unit cells with max indices [  4  4  4  ]
Reciprocal space sum over 4913 terms with max indices [  8  8  8  ]

---------- Allocating electronic variables ----------
Initializing wave functions:  linear combination of atomic orbitals
Co pseudo-atom occupations:   s ( 2 0 )  p ( 6 0 )  d ( 9 )
O pseudo-atom occupations:   s ( 2 )  p ( 4 )
	FillingsUpdate:  mu: +0.557530796  nElectrons: 150.000000
LCAOMinimize: Iter:   0  Etot: -947.8171512340502431  |grad|_K:  2.899e-02  alpha:  1.000e+00
	FillingsUpdate:  mu: +1.387962054  nElectrons: 150.000000
LCAOMinimize: Iter:   1  Etot: -982.4121255793764931  |grad|_K:  1.533e-02  alpha:  4.984e-01  linmin:  1.564e-01  cgtest: -1.520e+00  t[s]:     40.57
LCAOMinimize: 	Wrong curvature in test step, increasing alphaT to 1.495124e+00.
	FillingsUpdate:  mu: +1.420976511  nElectrons: 150.000000
LCAOMinimize: Iter:   2  Etot: -982.5106388814263028  |grad|_K:  1.464e-02  alpha: -1.920e-01  linmin: -2.955e-04  cgtest:  1.021e+00  t[s]:     54.05
LCAOMinimize: Encountered beta<0, resetting CG.
	FillingsUpdate:  mu: +1.326656222  nElectrons: 150.000000
LCAOMinimize: Iter:   3  Etot: -999.9142039714082557  |grad|_K:  9.764e-03  alpha:  2.715e-01  linmin: -1.229e-01  cgtest:  6.975e-01  t[s]:     68.78
LCAOMinimize: Encountered beta<0, resetting CG.
LCAOMinimize: None of the convergence criteria satisfied after 3 iterations.


---- Citations for features of the code used in this run ----

   Software package:
      R. Sundararaman, K. Letchworth-Weaver, K.A. Schwarz, D. Gunceler, Y. Ozhabes and T.A. Arias, 'JDFTx: software for joint density-functional theory', SoftwareX 6, 278 (2017)

   gga-PBE exchange-correlation functional:
      J.P. Perdew, K. Burke and M. Ernzerhof, Phys. Rev. Lett. 77, 3865 (1996)

   Pseudopotentials:
      KF Garrity, JW Bennett, KM Rabe and D Vanderbilt, Comput. Mater. Sci. 81, 446 (2014)

This list may not be complete. Please suggest additional citations or
report any other bugs at https://github.com/shankar1729/jdftx/issues

Initialization completed successfully at t[s]:     72.05


--------- Lattice Minimization ---------
Minimization of dimension 1 over strains spanned by:
[  0.57735  0  0  ]
[  0  0.57735  0  ]
[  0  0  0.57735  ]


-------- Electronic minimization -----------
Will mix electronic density at each iteration.
SCF: Cycle:  0   Etot: -906.358706945812173   dEtot: +9.358e+01   |Residual|: 1.051e+01   |deigs|: 8.075e-01  t[s]:    115.05
SCF: Cycle:  1   Etot: -1003.777826831450966   dEtot: -9.742e+01   |Residual|: 4.599e+00   |deigs|: 1.138e+00  t[s]:    149.31
SCF: Cycle:  2   Etot: -1019.587557516766537   dEtot: -1.581e+01   |Residual|: 8.679e-01   |deigs|: 3.613e-01  t[s]:    183.45
SCF: Cycle:  3   Etot: -1020.211186781589845   dEtot: -6.236e-01   |Residual|: 4.970e-01   |deigs|: 6.185e-02  t[s]:    217.84
SCF: Cycle:  4   Etot: -1019.502591992222165   dEtot: +7.086e-01   |Residual|: 7.257e-01   |deigs|: 3.596e-02  t[s]:    252.32
SCF: Cycle:  5   Etot: -1017.688357956889035   dEtot: +1.814e+00   |Residual|: 1.184e+00   |deigs|: 2.557e-02  t[s]:    286.74
SCF: Cycle:  6   Etot: -1018.518426883698339   dEtot: -8.301e-01   |Residual|: 1.021e+00   |deigs|: 6.831e-02  t[s]:    321.21
SCF: Cycle:  7   Etot: -1018.186338103619732   dEtot: +3.321e-01   |Residual|: 1.043e+00   |deigs|: 2.793e-02  t[s]:    355.68
SCF: Cycle:  8   Etot: -1020.167338638065075   dEtot: -1.981e+00   |Residual|: 4.505e-01   |deigs|: 3.048e-02  t[s]:    390.13
SCF: Cycle:  9   Etot: -1019.501358237464274   dEtot: +6.660e-01   |Residual|: 7.060e-01   |deigs|: 7.791e-03  t[s]:    424.60
SCF: Cycle: 10   Etot: -1019.332488227675412   dEtot: +1.689e-01   |Residual|: 7.679e-01   |deigs|: 1.907e-03  t[s]:    459.09
SCF: Cycle: 11   Etot: -1019.601934015104234   dEtot: -2.694e-01   |Residual|: 6.945e-01   |deigs|: 3.308e-03  t[s]:    493.59
SCF: Cycle: 12   Etot: -1019.585738603299205   dEtot: +1.620e-02   |Residual|: 6.939e-01   |deigs|: 3.965e-03  t[s]:    528.27
SCF: Cycle: 13   Etot: -1020.601172783215816   dEtot: -1.015e+00   |Residual|: 2.883e-01   |deigs|: 7.860e-03  t[s]:    562.92
SCF: Cycle: 14   Etot: -1020.630380169843534   dEtot: -2.921e-02   |Residual|: 2.954e-01   |deigs|: 6.802e-03  t[s]:    597.43
SCF: Cycle: 15   Etot: -1020.663104191052298   dEtot: -3.272e-02   |Residual|: 2.479e-01   |deigs|: 4.343e-03  t[s]:    632.12
SCF: Cycle: 16   Etot: -1020.696581342121704   dEtot: -3.348e-02   |Residual|: 1.890e-01   |deigs|: 4.065e-03  t[s]:    666.58
SCF: Cycle: 17   Etot: -1020.692554796230752   dEtot: +4.027e-03   |Residual|: 1.871e-01   |deigs|: 6.807e-04  t[s]:    701.13
SCF: Cycle: 18   Etot: -1020.693457672203408   dEtot: -9.029e-04   |Residual|: 1.850e-01   |deigs|: 6.035e-04  t[s]:    733.71
SCF: Cycle: 19   Etot: -1020.680032342792174   dEtot: +1.343e-02   |Residual|: 1.981e-01   |deigs|: 7.216e-04  t[s]:    767.14
SCF: Cycle: 20   Etot: -1019.944644805433313   dEtot: +7.354e-01   |Residual|: 5.825e-01   |deigs|: 8.325e-03  t[s]:    801.67
SCF: Cycle: 21   Etot: -1020.065426867814836   dEtot: -1.208e-01   |Residual|: 5.351e-01   |deigs|: 4.190e-03  t[s]:    836.14
SCF: Cycle: 22   Etot: -1019.735169904040958   dEtot: +3.303e-01   |Residual|: 6.577e-01   |deigs|: 4.298e-03  t[s]:    870.62
SCF: Cycle: 23   Etot: -1020.408362337447215   dEtot: -6.732e-01   |Residual|: 3.671e-01   |deigs|: 6.364e-03  t[s]:    905.19
SCF: Cycle: 24   Etot: -1020.730415876538245   dEtot: -3.221e-01   |Residual|: 5.708e-02   |deigs|: 7.700e-03  t[s]:    940.10
SCF: Cycle: 25   Etot: -1020.733388833884760   dEtot: -2.973e-03   |Residual|: 6.999e-02   |deigs|: 4.339e-03  t[s]:    974.81
SCF: Cycle: 26   Etot: -1020.711362690583542   dEtot: +2.203e-02   |Residual|: 1.236e-01   |deigs|: 1.764e-03  t[s]:   1009.26
SCF: Cycle: 27   Etot: -1020.741951371636560   dEtot: -3.059e-02   |Residual|: 4.584e-02   |deigs|: 4.006e-03  t[s]:   1044.06
SCF: Cycle: 28   Etot: -1020.738431383867919   dEtot: +3.520e-03   |Residual|: 6.364e-02   |deigs|: 2.254e-04  t[s]:   1078.12
SCF: Cycle: 29   Etot: -1020.647863194957154   dEtot: +9.057e-02   |Residual|: 2.063e-01   |deigs|: 4.674e-03  t[s]:   1112.73
SCF: Cycle: 30   Etot: -1020.688435833524181   dEtot: -4.057e-02   |Residual|: 1.523e-01   |deigs|: 4.035e-03  t[s]:   1147.13
SCF: Cycle: 31   Etot: -1020.711323752220665   dEtot: -2.289e-02   |Residual|: 1.155e-01   |deigs|: 1.195e-03  t[s]:   1181.14
SCF: Cycle: 32   Etot: -1020.722938715419104   dEtot: -1.161e-02   |Residual|: 9.587e-02   |deigs|: 5.799e-04  t[s]:   1215.25
SCF: Cycle: 33   Etot: -1020.735832471160620   dEtot: -1.289e-02   |Residual|: 6.387e-02   |deigs|: 5.237e-04  t[s]:   1246.73
SCF: Cycle: 34   Etot: -1020.743753935826248   dEtot: -7.921e-03   |Residual|: 2.995e-02   |deigs|: 8.919e-04  t[s]:   1280.71
SCF: Cycle: 35   Etot: -1020.746058524396858   dEtot: -2.305e-03   |Residual|: 9.091e-03   |deigs|: 4.521e-04  t[s]:   1312.44
SCF: Cycle: 36   Etot: -1020.746091423828034   dEtot: -3.290e-05   |Residual|: 9.770e-03   |deigs|: 2.394e-05  t[s]:   1340.27
SCF: Cycle: 37   Etot: -1020.743582133886548   dEtot: +2.509e-03   |Residual|: 3.329e-02   |deigs|: 4.504e-04  t[s]:   1372.08
SCF: Cycle: 38   Etot: -1020.741400982430832   dEtot: +2.181e-03   |Residual|: 4.480e-02   |deigs|: 2.245e-04  t[s]:   1403.34
SCF: Cycle: 39   Etot: -1020.742535368661947   dEtot: -1.134e-03   |Residual|: 3.789e-02   |deigs|: 5.029e-04  t[s]:   1427.06
SCF: Cycle: 40   Etot: -1020.738828463243408   dEtot: +3.707e-03   |Residual|: 5.557e-02   |deigs|: 7.321e-04  t[s]:   1457.74
SCF: Cycle: 41   Etot: -1020.732780126758712   dEtot: +6.048e-03   |Residual|: 7.507e-02   |deigs|: 3.658e-04  t[s]:   1488.42
SCF: Cycle: 42   Etot: -1020.731173393731979   dEtot: +1.607e-03   |Residual|: 7.928e-02   |deigs|: 2.070e-05  t[s]:   1512.89
SCF: Cycle: 43   Etot: -1020.731514114634365   dEtot: -3.407e-04   |Residual|: 7.760e-02   |deigs|: 1.917e-04  t[s]:   1534.74
SCF: Cycle: 44   Etot: -1020.728095522984631   dEtot: +3.419e-03   |Residual|: 8.747e-02   |deigs|: 3.229e-04  t[s]:   1558.43
SCF: Cycle: 45   Etot: -1020.728633675363426   dEtot: -5.382e-04   |Residual|: 8.538e-02   |deigs|: 1.911e-04  t[s]:   1581.63
SCF: Cycle: 46   Etot: -1020.728147491577715   dEtot: +4.862e-04   |Residual|: 8.695e-02   |deigs|: 1.161e-04  t[s]:   1603.39
SCF: Cycle: 47   Etot: -1020.736672163331718   dEtot: -8.525e-03   |Residual|: 6.254e-02   |deigs|: 8.240e-04  t[s]:   1633.22
SCF: Cycle: 48   Etot: -1020.736646550301884   dEtot: +2.561e-05   |Residual|: 6.361e-02   |deigs|: 3.253e-04  t[s]:   1658.07
SCF: Cycle: 49   Etot: -1020.725100487807936   dEtot: +1.155e-02   |Residual|: 9.625e-02   |deigs|: 1.305e-03  t[s]:   1690.14
Calculating stress tensor...  done!

R = 
[    10.8905    5.44526    5.44526  ]
[          0    9.43146    3.14382  ]
[          0          0    8.89207  ]
unit cell volume = 913.335

# Strain Tensor:
[            0            0            0  ]
[            0            0            0  ]
[            0            0            0  ]

# Stress Tensor:
[  0.000469394            0            0  ]
[            0  0.000469394            0  ]
[            0            0  0.000469394  ]


# Ionic positions in lattice coordinates:
ion Co   0.125000000000000   0.125000000000000   0.125000000000000 1
ion Co   0.500000000000000   0.500000000000000   0.500000000000000 1
ion Co   0.125000000000000   0.625000000000000   0.125000000000000 1
ion Co   0.125000000000000   0.125000000000000   0.625000000000000 1
ion Co   0.750000000000000   0.750000000000000   0.750000000000000 1
ion Co   0.625000000000000   0.125000000000000   0.125000000000000 1
ion O   0.361247500000000   0.361247500000000   0.361247500000000 1
ion O   0.333742500000000   0.888752500000000   0.888752500000000 1
ion O   0.361247500000000   0.361247500000000   0.916257500000000 1
ion O   0.916257500000000   0.361247500000000   0.361247500000000 1
ion O   0.361247500000000   0.916257500000000   0.361247500000000 1
ion O   0.888752500000000   0.888752500000000   0.333742500000000 1
ion O   0.888752500000000   0.888752500000000   0.888752500000000 1
ion O   0.888752500000000   0.333742500000000   0.888752500000000 1


# Forces in Lattice coordinates:
force Co   0.000000000000000  -0.000000000000000   0.000000000000000 1
force Co  -0.000000000000000  -0.000000000000000   0.000000000000000 1
force Co  -0.000000000000000   0.000000000000000  -0.000000000000000 1
force Co  -0.000000000000000  -0.000000000000000  -0.000000000000000 1
force Co  -0.000000000000000   0.000000000000000   0.000000000000000 1
force Co  -0.000000000000000  -0.000000000000000   0.000000000000000 1
force O   0.082435770970002   0.082435770970016   0.082435770970017 1
force O   0.082435770970038  -0.000000000000000   0.000000000000000 1
force O   0.000000000000000  -0.000000000000000  -0.082435770970031 1
force O  -0.082435770970030  -0.000000000000000   0.000000000000000 1
force O   0.000000000000000  -0.082435770970030  -0.000000000000000 1
force O  -0.000000000000000  -0.000000000000000   0.082435770970045 1
force O  -0.082435770970045  -0.082435770970037  -0.082435770970038 1
force O   0.000000000000000   0.082435770970031   0.000000000000000 1

# Energy components:
   Eewald =     -619.8543941636362433
       EH =      358.3448005815723718
     Eloc =     -995.4056844826304769
      Enl =      173.9270189106964324
      Exc =     -126.7970291506402987
 Exc_core =        3.7843577862497244
       KE =      185.2758300305842738
-------------------------------------
     Etot =    -1020.7251004878041840


Dumping 'Si.wfns' ... done
Dumping 'Si.ionpos' ... done
Dumping 'Si.lattice' ... done
Dumping 'Si.n' ... done
LatticeMinimize: Iter:   0  Etot: -1020.725100487804184  |grad|_K:  7.305e-02  t[s]:   1727.20

#--- Lowdin population analysis ---
# oxidation-state Co +0.338 +0.153 +0.338 +0.338 +0.153 +0.338
# oxidation-state O -0.184 -0.184 -0.184 -0.184 -0.184 -0.184 -0.184 -0.184


-------- Electronic minimization -----------
Will mix electronic density at each iteration.
SCF: Cycle:  0   Etot: -1005.586474355265636   dEtot: +1.514e+01   |Residual|: 2.503e+00   |deigs|: 9.570e-03  t[s]:   1791.00
SCF: Cycle:  1   Etot: -966.701137670956882   dEtot: +3.889e+01   |Residual|: 5.523e+00   |deigs|: 3.723e-01  t[s]:   1825.85
SCF: Cycle:  2   Etot: -1004.816515754931061   dEtot: -3.812e+01   |Residual|: 2.849e+00   |deigs|: 2.967e-01  t[s]:   1860.44
SCF: Cycle:  3   Etot: -1010.983033070440456   dEtot: -6.167e+00   |Residual|: 2.008e+00   |deigs|: 8.816e-02  t[s]:   1894.86
SCF: Cycle:  4   Etot: -1018.308380014694876   dEtot: -7.325e+00   |Residual|: 7.179e-01   |deigs|: 5.754e-02  t[s]:   1929.48
SCF: Cycle:  5   Etot: -1015.035951035365088   dEtot: +3.272e+00   |Residual|: 1.554e+00   |deigs|: 2.996e-02  t[s]:   1963.90
SCF: Cycle:  6   Etot: -1013.032063388151414   dEtot: +2.004e+00   |Residual|: 1.769e+00   |deigs|: 2.906e-02  t[s]:   1998.33
SCF: Cycle:  7   Etot: -1016.080714433171806   dEtot: -3.049e+00   |Residual|: 1.412e+00   |deigs|: 3.705e-02  t[s]:   2032.92
SCF: Cycle:  8   Etot: -1013.320910929594334   dEtot: +2.760e+00   |Residual|: 1.832e+00   |deigs|: 8.286e-03  t[s]:   2067.63
SCF: Cycle:  9   Etot: -1013.126599136139930   dEtot: +1.943e-01   |Residual|: 1.838e+00   |deigs|: 8.010e-03  t[s]:   2102.24
SCF: Cycle: 10   Etot: -1011.678725785114921   dEtot: +1.448e+00   |Residual|: 2.039e+00   |deigs|: 1.394e-02  t[s]:   2136.86
SCF: Cycle: 11   Etot: -1008.959694992089908   dEtot: +2.719e+00   |Residual|: 2.410e+00   |deigs|: 3.568e-02  t[s]:   2171.39
SCF: Cycle: 12   Etot: -1010.781340297628049   dEtot: -1.822e+00   |Residual|: 2.165e+00   |deigs|: 3.907e-02  t[s]:   2206.00
SCF: Cycle: 13   Etot: -1013.986224183106629   dEtot: -3.205e+00   |Residual|: 1.681e+00   |deigs|: 3.218e-02  t[s]:   2240.72
SCF: Cycle: 14   Etot: -1018.120784580264626   dEtot: -4.135e+00   |Residual|: 1.025e+00   |deigs|: 1.749e-02  t[s]:   2275.60
SCF: Cycle: 15   Etot: -1020.245669160290163   dEtot: -2.125e+00   |Residual|: 4.688e-01   |deigs|: 5.551e-03  t[s]:   2310.35
SCF: Cycle: 16   Etot: -1013.867406193659463   dEtot: +6.378e+00   |Residual|: 1.597e+00   |deigs|: 1.644e-02  t[s]:   2345.07
SCF: Cycle: 17   Etot: -1012.528999304684021   dEtot: +1.338e+00   |Residual|: 1.746e+00   |deigs|: 4.988e-03  t[s]:   2379.64
SCF: Cycle: 18   Etot: -991.036432521464917   dEtot: +2.149e+01   |Residual|: 3.431e+00   |deigs|: 4.162e-02  t[s]:   2414.28
SCF: Cycle: 19   Etot: -1019.046217371697594   dEtot: -2.801e+01   |Residual|: 7.033e-01   |deigs|: 7.206e-02  t[s]:   2448.80
SCF: Cycle: 20   Etot: -1016.174085949520190   dEtot: +2.872e+00   |Residual|: 1.294e+00   |deigs|: 3.300e-02  t[s]:   2483.39
SCF: Cycle: 21   Etot: -1018.343333639568755   dEtot: -2.169e+00   |Residual|: 9.291e-01   |deigs|: 2.172e-02  t[s]:   2517.87
SCF: Cycle: 22   Etot: -1018.971641880919037   dEtot: -6.283e-01   |Residual|: 8.044e-01   |deigs|: 4.548e-03  t[s]:   2552.32
SCF: Cycle: 23   Etot: -1020.584170518798942   dEtot: -1.613e+00   |Residual|: 4.183e-01   |deigs|: 1.556e-02  t[s]:   2586.88
SCF: Cycle: 24   Etot: -1016.017851276366400   dEtot: +4.566e+00   |Residual|: 1.510e+00   |deigs|: 3.329e-02  t[s]:   2621.41
SCF: Cycle: 25   Etot: -1015.647034160154590   dEtot: +3.708e-01   |Residual|: 1.518e+00   |deigs|: 1.720e-02  t[s]:   2656.06
SCF: Cycle: 26   Etot: -1018.575696123375565   dEtot: -2.929e+00   |Residual|: 9.729e-01   |deigs|: 2.021e-02  t[s]:   2690.81
SCF: Cycle: 27   Etot: -1020.423267810231891   dEtot: -1.848e+00   |Residual|: 3.545e-01   |deigs|: 1.577e-02  t[s]:   2725.54
SCF: Cycle: 28   Etot: -1020.486876180435047   dEtot: -6.361e-02   |Residual|: 3.499e-01   |deigs|: 8.802e-03  t[s]:   2760.09
SCF: Cycle: 29   Etot: -1018.698287434737722   dEtot: +1.789e+00   |Residual|: 9.336e-01   |deigs|: 2.425e-03  t[s]:   2794.69
SCF: Cycle: 30   Etot: -1016.353908919284777   dEtot: +2.344e+00   |Residual|: 1.345e+00   |deigs|: 8.540e-03  t[s]:   2829.36
SCF: Cycle: 31   Etot: -1018.101763034147439   dEtot: -1.748e+00   |Residual|: 1.041e+00   |deigs|: 1.825e-02  t[s]:   2864.00
SCF: Cycle: 32   Etot: -1019.873265110489911   dEtot: -1.772e+00   |Residual|: 6.316e-01   |deigs|: 8.320e-03  t[s]:   2898.56
SCF: Cycle: 33   Etot: -1020.265414147232150   dEtot: -3.921e-01   |Residual|: 5.052e-01   |deigs|: 1.035e-03  t[s]:   2933.15
SCF: Cycle: 34   Etot: -1020.281050796115437   dEtot: -1.564e-02   |Residual|: 5.195e-01   |deigs|: 3.764e-03  t[s]:   2967.69
SCF: Cycle: 35   Etot: -1020.304981748712862   dEtot: -2.393e-02   |Residual|: 5.105e-01   |deigs|: 1.180e-03  t[s]:   3002.46
SCF: Cycle: 36   Etot: -1010.092890421872994   dEtot: +1.021e+01   |Residual|: 2.062e+00   |deigs|: 4.404e-02  t[s]:   3036.94
SCF: Cycle: 37   Etot: -1013.131281044333036   dEtot: -3.038e+00   |Residual|: 1.735e+00   |deigs|: 2.295e-02  t[s]:   3071.73
SCF: Cycle: 38   Etot: -1010.510176854817701   dEtot: +2.621e+00   |Residual|: 2.014e+00   |deigs|: 9.465e-03  t[s]:   3106.17
SCF: Cycle: 39   Etot: -997.080148107331297   dEtot: +1.343e+01   |Residual|: 3.055e+00   |deigs|: 1.279e-02  t[s]:   3140.80
SCF: Cycle: 40   Etot: -977.619114112730699   dEtot: +1.946e+01   |Residual|: 4.279e+00   |deigs|: 8.876e-02  t[s]:   3175.27
SCF: Cycle: 41   Etot: -977.797176015150399   dEtot: -1.781e-01   |Residual|: 4.174e+00   |deigs|: 4.842e-02  t[s]:   3209.79
SCF: Cycle: 42   Etot: -985.441027393513650   dEtot: -7.644e+00   |Residual|: 3.759e+00   |deigs|: 4.333e-02  t[s]:   3244.38
SCF: Cycle: 43   Etot: -1018.617600366936131   dEtot: -3.318e+01   |Residual|: 9.866e-01   |deigs|: 4.209e-02  t[s]:   3278.91
SCF: Cycle: 44   Etot: -1005.795395062685657   dEtot: +1.282e+01   |Residual|: 2.475e+00   |deigs|: 5.093e-02  t[s]:   3313.46
SCF: Cycle: 45   Etot: -1001.914727077609882   dEtot: +3.881e+00   |Residual|: 2.720e+00   |deigs|: 1.704e-02  t[s]:   3348.02
SCF: Cycle: 46   Etot: -999.411982505405035   dEtot: +2.503e+00   |Residual|: 2.875e+00   |deigs|: 3.135e-03  t[s]:   3382.43
SCF: Cycle: 47   Etot: -991.792763285645151   dEtot: +7.619e+00   |Residual|: 3.335e+00   |deigs|: 1.166e-02  t[s]:   3417.19
SCF: Cycle: 48   Etot: -985.540978529128438   dEtot: +6.252e+00   |Residual|: 3.685e+00   |deigs|: 1.373e-02  t[s]:   3451.98
SCF: Cycle: 49   Etot: -981.687909966476582   dEtot: +3.853e+00   |Residual|: 3.886e+00   |deigs|: 1.255e-02  t[s]:   3486.74
Calculating stress tensor...  done!
LatticeMinimize: 	Wolfe criterion not satisfied: alpha: 1  (E-E0)/|gdotd0|: 7315.02  gdotd/gdotd0: -45.1146 (taking cubic step)

-------- Electronic minimization -----------
Will mix electronic density at each iteration.
SCF: Cycle:  0   Etot: -688.152307042342272   dEtot: +2.934e+02   |Residual|: 1.286e+01   |deigs|: 1.790e+00  t[s]:   3584.81
SCF: Cycle:  1   Etot: -998.580809904934995   dEtot: -3.104e+02   |Residual|: 2.533e+00   |deigs|: 1.495e+00  t[s]:   3619.58
SCF: Cycle:  2   Etot: -963.163152940546979   dEtot: +3.542e+01   |Residual|: 6.359e+00   |deigs|: 2.554e-01  t[s]:   3654.07
SCF: Cycle:  3   Etot: -987.392475338113400   dEtot: -2.423e+01   |Residual|: 4.343e+00   |deigs|: 3.834e-01  t[s]:   3688.64
SCF: Cycle:  4   Etot: -1000.602101804601148   dEtot: -1.321e+01   |Residual|: 3.071e+00   |deigs|: 2.308e-01  t[s]:   3723.29
SCF: Cycle:  5   Etot: -1013.709909873763650   dEtot: -1.311e+01   |Residual|: 1.604e+00   |deigs|: 1.604e-01  t[s]:   3757.83
SCF: Cycle:  6   Etot: -1016.740814378316486   dEtot: -3.031e+00   |Residual|: 1.121e+00   |deigs|: 2.339e-02  t[s]:   3792.48
SCF: Cycle:  7   Etot: -1015.935551687302677   dEtot: +8.053e-01   |Residual|: 1.547e+00   |deigs|: 7.195e-02  t[s]:   3827.08
SCF: Cycle:  8   Etot: -1005.021053117384781   dEtot: +1.091e+01   |Residual|: 2.465e+00   |deigs|: 1.037e-01  t[s]:   3861.68
SCF: Cycle:  9   Etot: -998.569789946515129   dEtot: +6.451e+00   |Residual|: 2.894e+00   |deigs|: 6.574e-02  t[s]:   3896.24
SCF: Cycle: 10   Etot: -987.118162583757567   dEtot: +1.145e+01   |Residual|: 3.550e+00   |deigs|: 8.625e-03  t[s]:   3930.88
SCF: Cycle: 11   Etot: -978.362545800426233   dEtot: +8.756e+00   |Residual|: 4.062e+00   |deigs|: 4.673e-02  t[s]:   3965.87
SCF: Cycle: 12   Etot: -974.289548496420593   dEtot: +4.073e+00   |Residual|: 4.296e+00   |deigs|: 2.553e-02  t[s]:   4000.64
SCF: Cycle: 13   Etot: -976.970699300669366   dEtot: -2.681e+00   |Residual|: 4.038e+00   |deigs|: 5.213e-02  t[s]:   4035.26
SCF: Cycle: 14   Etot: -968.367235662006351   dEtot: +8.603e+00   |Residual|: 4.714e+00   |deigs|: 1.250e-01  t[s]:   4069.89
SCF: Cycle: 15   Etot: -955.947897342549254   dEtot: +1.242e+01   |Residual|: 5.603e+00   |deigs|: 2.177e-01  t[s]:   4104.65
SCF: Cycle: 16   Etot: -986.013556023538513   dEtot: -3.007e+01   |Residual|: 3.580e+00   |deigs|: 3.801e-01  t[s]:   4139.21
SCF: Cycle: 17   Etot: -1017.220440878643217   dEtot: -3.121e+01   |Residual|: 1.341e+00   |deigs|: 5.523e-02  t[s]:   4174.03
SCF: Cycle: 18   Etot: -1006.569347366047168   dEtot: +1.065e+01   |Residual|: 2.763e+00   |deigs|: 9.736e-02  t[s]:   4208.94
SCF: Cycle: 19   Etot: -1009.229735912854494   dEtot: -2.660e+00   |Residual|: 2.397e+00   |deigs|: 7.982e-02  t[s]:   4243.72
SCF: Cycle: 20   Etot: -1006.856010642557749   dEtot: +2.374e+00   |Residual|: 2.746e+00   |deigs|: 6.208e-02  t[s]:   4278.42
SCF: Cycle: 21   Etot: -1009.432297669009358   dEtot: -2.576e+00   |Residual|: 2.436e+00   |deigs|: 8.372e-02  t[s]:   4313.12
SCF: Cycle: 22   Etot: -1012.967757468796208   dEtot: -3.535e+00   |Residual|: 1.885e+00   |deigs|: 7.206e-02  t[s]:   4347.83
SCF: Cycle: 23   Etot: -1020.338358542137598   dEtot: -7.371e+00   |Residual|: 5.821e-01   |deigs|: 1.565e-02  t[s]:   4382.43
SCF: Cycle: 24   Etot: -1019.829390880509095   dEtot: +5.090e-01   |Residual|: 8.275e-01   |deigs|: 1.253e-02  t[s]:   4417.35
SCF: Cycle: 25   Etot: -1020.173805677224777   dEtot: -3.444e-01   |Residual|: 5.995e-01   |deigs|: 1.874e-02  t[s]:   4452.01
SCF: Cycle: 26   Etot: -985.439646950878569   dEtot: +3.473e+01   |Residual|: 3.553e+00   |deigs|: 4.257e-02  t[s]:   4486.58
SCF: Cycle: 27   Etot: -980.918329429770324   dEtot: +4.521e+00   |Residual|: 3.807e+00   |deigs|: 1.233e-02  t[s]:   4521.77
SCF: Cycle: 28   Etot: -1018.476156406920154   dEtot: -3.756e+01   |Residual|: 9.952e-01   |deigs|: 7.698e-02  t[s]:   4556.51
SCF: Cycle: 29   Etot: -1020.559749146055537   dEtot: -2.084e+00   |Residual|: 3.542e-01   |deigs|: 5.092e-02  t[s]:   4591.21
SCF: Cycle: 30   Etot: -1020.255925630147431   dEtot: +3.038e-01   |Residual|: 5.191e-01   |deigs|: 4.175e-03  t[s]:   4625.79
SCF: Cycle: 31   Etot: -1020.581685391364772   dEtot: -3.258e-01   |Residual|: 4.380e-01   |deigs|: 1.737e-02  t[s]:   4660.74
SCF: Cycle: 32   Etot: -1020.551704963261955   dEtot: +2.998e-02   |Residual|: 5.062e-01   |deigs|: 8.131e-03  t[s]:   4695.38
SCF: Cycle: 33   Etot: -1020.071145717031186   dEtot: +4.806e-01   |Residual|: 6.738e-01   |deigs|: 7.922e-03  t[s]:   4729.97
SCF: Cycle: 34   Etot: -1020.646648285671859   dEtot: -5.755e-01   |Residual|: 4.635e-01   |deigs|: 1.479e-02  t[s]:   4764.70
SCF: Cycle: 35   Etot: -1020.288235529795543   dEtot: +3.584e-01   |Residual|: 5.905e-01   |deigs|: 7.257e-03  t[s]:   4799.39
SCF: Cycle: 36   Etot: -1020.234283214226934   dEtot: +5.395e-02   |Residual|: 5.762e-01   |deigs|: 1.943e-02  t[s]:   4834.14
SCF: Cycle: 37   Etot: -1020.104362064430461   dEtot: +1.299e-01   |Residual|: 6.304e-01   |deigs|: 4.828e-03  t[s]:   4868.70
SCF: Cycle: 38   Etot: -1018.915660613300020   dEtot: +1.189e+00   |Residual|: 1.034e+00   |deigs|: 2.174e-02  t[s]:   4903.49
SCF: Cycle: 39   Etot: -1011.758741406479658   dEtot: +7.157e+00   |Residual|: 2.056e+00   |deigs|: 5.097e-02  t[s]:   4938.13
SCF: Cycle: 40   Etot: -1014.053232896812005   dEtot: -2.294e+00   |Residual|: 1.719e+00   |deigs|: 2.927e-02  t[s]:   4972.81
SCF: Cycle: 41   Etot: -1016.173780487753561   dEtot: -2.121e+00   |Residual|: 1.394e+00   |deigs|: 1.141e-02  t[s]:   5007.71
SCF: Cycle: 42   Etot: -1017.135814643696904   dEtot: -9.620e-01   |Residual|: 1.269e+00   |deigs|: 1.729e-02  t[s]:   5042.31
SCF: Cycle: 43   Etot: -1016.166614401762217   dEtot: +9.692e-01   |Residual|: 1.384e+00   |deigs|: 1.049e-02  t[s]:   5076.93
SCF: Cycle: 44   Etot: -1016.760663684518931   dEtot: -5.940e-01   |Residual|: 1.287e+00   |deigs|: 5.163e-03  t[s]:   5111.55
SCF: Cycle: 45   Etot: -1019.162485108716737   dEtot: -2.402e+00   |Residual|: 7.782e-01   |deigs|: 9.033e-03  t[s]:   5146.25
SCF: Cycle: 46   Etot: -1020.256317512527403   dEtot: -1.094e+00   |Residual|: 4.425e-01   |deigs|: 2.833e-02  t[s]:   5180.74
SCF: Cycle: 47   Etot: -1016.302989177181757   dEtot: +3.953e+00   |Residual|: 1.298e+00   |deigs|: 3.155e-03  t[s]:   5215.58
SCF: Cycle: 48   Etot: -1018.144925763183664   dEtot: -1.842e+00   |Residual|: 1.006e+00   |deigs|: 1.388e-02  t[s]:   5250.21
SCF: Cycle: 49   Etot: -1018.855680384047105   dEtot: -7.108e-01   |Residual|: 8.631e-01   |deigs|: 3.182e-03  t[s]:   5284.93
Calculating stress tensor...  done!
LatticeMinimize: 	Wolfe criterion not satisfied: alpha: 2.28295e-05  (E-E0)/|gdotd0|: 350.303  gdotd/gdotd0: -1.89536 (taking cubic step)

-------- Electronic minimization -----------
Will mix electronic density at each iteration.
SCF: Cycle:  0   Etot: -932.471842823556813   dEtot: +8.638e+01   |Residual|: 6.298e+00   |deigs|: 1.745e-01  t[s]:   5381.67
SCF: Cycle:  1   Etot: -936.005992659818276   dEtot: -3.534e+00   |Residual|: 8.080e+00   |deigs|: 5.413e-01  t[s]:   5416.24
SCF: Cycle:  2   Etot: -987.393826764254527   dEtot: -5.139e+01   |Residual|: 4.053e+00   |deigs|: 5.395e-01  t[s]:   5450.90
SCF: Cycle:  3   Etot: -1013.247238981351870   dEtot: -2.585e+01   |Residual|: 2.035e+00   |deigs|: 1.400e-01  t[s]:   5485.49
SCF: Cycle:  4   Etot: -1010.945633975138662   dEtot: +2.302e+00   |Residual|: 2.281e+00   |deigs|: 3.390e-02  t[s]:   5520.09
SCF: Cycle:  5   Etot: -1014.660999324619752   dEtot: -3.715e+00   |Residual|: 1.643e+00   |deigs|: 8.703e-02  t[s]:   5554.72
SCF: Cycle:  6   Etot: -1017.719184562786381   dEtot: -3.058e+00   |Residual|: 1.245e+00   |deigs|: 4.630e-02  t[s]:   5589.19
SCF: Cycle:  7   Etot: -1019.839645078672334   dEtot: -2.120e+00   |Residual|: 6.413e-01   |deigs|: 4.423e-02  t[s]:   5623.61
SCF: Cycle:  8   Etot: -1014.181770559790266   dEtot: +5.658e+00   |Residual|: 1.764e+00   |deigs|: 4.629e-02  t[s]:   5658.35
SCF: Cycle:  9   Etot: -1012.347575565138527   dEtot: +1.834e+00   |Residual|: 1.973e+00   |deigs|: 1.903e-02  t[s]:   5693.01
SCF: Cycle: 10   Etot: -1013.461187260661745   dEtot: -1.114e+00   |Residual|: 1.796e+00   |deigs|: 2.449e-02  t[s]:   5727.76
SCF: Cycle: 11   Etot: -1008.920673637015398   dEtot: +4.541e+00   |Residual|: 2.104e+00   |deigs|: 3.848e-02  t[s]:   5762.30
SCF: Cycle: 12   Etot: -994.590753892700491   dEtot: +1.433e+01   |Residual|: 3.156e+00   |deigs|: 1.315e-02  t[s]:   5796.92
SCF: Cycle: 13   Etot: -992.748317801080702   dEtot: +1.842e+00   |Residual|: 3.262e+00   |deigs|: 3.087e-03  t[s]:   5831.41
SCF: Cycle: 14   Etot: -990.192325435027897   dEtot: +2.556e+00   |Residual|: 3.415e+00   |deigs|: 4.513e-03  t[s]:   5865.97
SCF: Cycle: 15   Etot: -989.349171259818718   dEtot: +8.432e-01   |Residual|: 3.444e+00   |deigs|: 5.059e-03  t[s]:   5900.56
SCF: Cycle: 16   Etot: -989.903968492936428   dEtot: -5.548e-01   |Residual|: 3.413e+00   |deigs|: 5.759e-03  t[s]:   5935.11
SCF: Cycle: 17   Etot: -981.272547890606575   dEtot: +8.631e+00   |Residual|: 3.897e+00   |deigs|: 3.660e-02  t[s]:   5969.71
SCF: Cycle: 18   Etot: -1019.744173623860092   dEtot: -3.847e+01   |Residual|: 6.448e-01   |deigs|: 8.014e-02  t[s]:   6004.29
SCF: Cycle: 19   Etot: -1016.501749697033347   dEtot: +3.242e+00   |Residual|: 1.338e+00   |deigs|: 3.557e-02  t[s]:   6039.06
SCF: Cycle: 20   Etot: -1014.758141909724600   dEtot: +1.744e+00   |Residual|: 1.545e+00   |deigs|: 1.152e-02  t[s]:   6073.73
SCF: Cycle: 21   Etot: -1010.651704814930440   dEtot: +4.106e+00   |Residual|: 2.210e+00   |deigs|: 4.517e-02  t[s]:   6108.35
SCF: Cycle: 22   Etot: -1014.027336981334201   dEtot: -3.376e+00   |Residual|: 1.647e+00   |deigs|: 5.100e-02  t[s]:   6142.94
SCF: Cycle: 23   Etot: -1015.422408266716502   dEtot: -1.395e+00   |Residual|: 1.431e+00   |deigs|: 1.524e-02  t[s]:   6177.67
SCF: Cycle: 24   Etot: -1016.372601097363713   dEtot: -9.502e-01   |Residual|: 1.318e+00   |deigs|: 6.970e-03  t[s]:   6212.26
SCF: Cycle: 25   Etot: -1018.018354262201910   dEtot: -1.646e+00   |Residual|: 1.030e+00   |deigs|: 1.050e-02  t[s]:   6246.95
SCF: Cycle: 26   Etot: -1018.061792967846941   dEtot: -4.344e-02   |Residual|: 1.038e+00   |deigs|: 4.924e-03  t[s]:   6281.55
SCF: Cycle: 27   Etot: -1020.547487370500676   dEtot: -2.486e+00   |Residual|: 2.574e-01   |deigs|: 1.963e-02  t[s]:   6316.06
SCF: Cycle: 28   Etot: -1020.557674353330526   dEtot: -1.019e-02   |Residual|: 3.096e-01   |deigs|: 1.093e-02  t[s]:   6350.81
SCF: Cycle: 29   Etot: -1020.656921039996973   dEtot: -9.925e-02   |Residual|: 2.283e-01   |deigs|: 3.300e-03  t[s]:   6385.22
SCF: Cycle: 30   Etot: -1002.203983330541178   dEtot: +1.845e+01   |Residual|: 2.661e+00   |deigs|: 5.663e-02  t[s]:   6419.77
SCF: Cycle: 31   Etot: -1017.627750072310846   dEtot: -1.542e+01   |Residual|: 1.107e+00   |deigs|: 5.543e-02  t[s]:   6454.64
SCF: Cycle: 32   Etot: -1019.890777573711148   dEtot: -2.263e+00   |Residual|: 6.061e-01   |deigs|: 9.385e-03  t[s]:   6489.34
SCF: Cycle: 33   Etot: -1020.619514530196852   dEtot: -7.287e-01   |Residual|: 3.874e-01   |deigs|: 3.794e-03  t[s]:   6524.04
SCF: Cycle: 34   Etot: -1020.684722949183652   dEtot: -6.521e-02   |Residual|: 3.537e-01   |deigs|: 2.019e-03  t[s]:   6558.76
SCF: Cycle: 35   Etot: -1020.690450269522444   dEtot: -5.727e-03   |Residual|: 3.046e-01   |deigs|: 4.965e-03  t[s]:   6593.41
SCF: Cycle: 36   Etot: -1019.727742678654749   dEtot: +9.627e-01   |Residual|: 7.202e-01   |deigs|: 1.062e-02  t[s]:   6628.09
SCF: Cycle: 37   Etot: -1017.431673801504303   dEtot: +2.296e+00   |Residual|: 1.223e+00   |deigs|: 1.614e-02  t[s]:   6662.75
SCF: Cycle: 38   Etot: -1015.813284571435588   dEtot: +1.618e+00   |Residual|: 1.482e+00   |deigs|: 4.561e-03  t[s]:   6697.30
SCF: Cycle: 39   Etot: -1018.575474540884670   dEtot: -2.762e+00   |Residual|: 9.149e-01   |deigs|: 2.877e-02  t[s]:   6732.04
SCF: Cycle: 40   Etot: -1017.497260009824686   dEtot: +1.078e+00   |Residual|: 1.184e+00   |deigs|: 1.627e-02  t[s]:   6766.73
SCF: Cycle: 41   Etot: -1018.361465860378644   dEtot: -8.642e-01   |Residual|: 9.900e-01   |deigs|: 1.179e-02  t[s]:   6801.49
SCF: Cycle: 42   Etot: -1019.669125384818926   dEtot: -1.308e+00   |Residual|: 6.453e-01   |deigs|: 7.835e-03  t[s]:   6836.22
SCF: Cycle: 43   Etot: -1020.210245166177060   dEtot: -5.411e-01   |Residual|: 5.480e-01   |deigs|: 2.196e-02  t[s]:   6870.83
SCF: Cycle: 44   Etot: -994.897271976958336   dEtot: +2.531e+01   |Residual|: 3.233e+00   |deigs|: 4.372e-02  t[s]:   6905.65
SCF: Cycle: 45   Etot: -1009.635089306060991   dEtot: -1.474e+01   |Residual|: 2.096e+00   |deigs|: 5.045e-02  t[s]:   6940.32
SCF: Cycle: 46   Etot: -1017.545331349101275   dEtot: -7.910e+00   |Residual|: 1.111e+00   |deigs|: 1.516e-02  t[s]:   6974.84
SCF: Cycle: 47   Etot: -1020.578545075064312   dEtot: -3.033e+00   |Residual|: 2.600e-01   |deigs|: 6.389e-03  t[s]:   7009.48
SCF: Cycle: 48   Etot: -1020.560944091974079   dEtot: +1.760e-02   |Residual|: 3.393e-01   |deigs|: 1.551e-03  t[s]:   7044.17
SCF: Cycle: 49   Etot: -1020.048963108743578   dEtot: +5.120e-01   |Residual|: 5.696e-01   |deigs|: 5.120e-03  t[s]:   7078.66
Calculating stress tensor...  done!
LatticeMinimize: 	Wolfe criterion not satisfied: alpha: 2.4797e-13  (E-E0)/|gdotd0|: 126.699  gdotd/gdotd0: -3.06272 (taking cubic step)

-------- Electronic minimization -----------
Will mix electronic density at each iteration.
SCF: Cycle:  0   Etot: -973.625088751316412   dEtot: +4.642e+01   |Residual|: 4.712e+00   |deigs|: 1.725e-01  t[s]:   7176.28
SCF: Cycle:  1   Etot: -923.610829811531630   dEtot: +5.001e+01   |Residual|: 7.516e+00   |deigs|: 4.360e-01  t[s]:   7210.79
SCF: Cycle:  2   Etot: -1005.821698248727785   dEtot: -8.221e+01   |Residual|: 2.885e+00   |deigs|: 4.226e-01  t[s]:   7246.01
SCF: Cycle:  3   Etot: -1012.897825012709404   dEtot: -7.076e+00   |Residual|: 1.767e+00   |deigs|: 1.104e-01  t[s]:   7280.68
SCF: Cycle:  4   Etot: -1019.328229611179268   dEtot: -6.430e+00   |Residual|: 3.661e-01   |deigs|: 1.082e-01  t[s]:   7315.22
SCF: Cycle:  5   Etot: -1002.580943625626560   dEtot: +1.675e+01   |Residual|: 2.652e+00   |deigs|: 4.124e-02  t[s]:   7349.72
SCF: Cycle:  6   Etot: -1019.306870889229685   dEtot: -1.673e+01   |Residual|: 8.313e-01   |deigs|: 8.235e-02  t[s]:   7384.33
SCF: Cycle:  7   Etot: -1020.495851182193519   dEtot: -1.189e+00   |Residual|: 3.997e-01   |deigs|: 1.654e-02  t[s]:   7419.24
SCF: Cycle:  8   Etot: -1019.986514400825286   dEtot: +5.093e-01   |Residual|: 5.917e-01   |deigs|: 9.767e-03  t[s]:   7453.95
SCF: Cycle:  9   Etot: -1019.704951355196044   dEtot: +2.816e-01   |Residual|: 7.071e-01   |deigs|: 1.533e-03  t[s]:   7488.76
SCF: Cycle: 10   Etot: -1017.980174424212237   dEtot: +1.725e+00   |Residual|: 1.070e+00   |deigs|: 9.610e-03  t[s]:   7523.63
SCF: Cycle: 11   Etot: -1019.830583932327158   dEtot: -1.850e+00   |Residual|: 7.842e-01   |deigs|: 1.941e-02  t[s]:   7558.38
SCF: Cycle: 12   Etot: -1019.646099999226863   dEtot: +1.845e-01   |Residual|: 8.818e-01   |deigs|: 1.640e-02  t[s]:   7593.15
SCF: Cycle: 13   Etot: -1020.691761928650749   dEtot: -1.046e+00   |Residual|: 2.371e-01   |deigs|: 4.006e-02  t[s]:   7627.68
SCF: Cycle: 14   Etot: -1019.543461608198413   dEtot: +1.148e+00   |Residual|: 7.330e-01   |deigs|: 1.174e-02  t[s]:   7662.37
SCF: Cycle: 15   Etot: -1018.232837621907265   dEtot: +1.311e+00   |Residual|: 1.014e+00   |deigs|: 2.582e-02  t[s]:   7697.04
SCF: Cycle: 16   Etot: -1012.742821252032627   dEtot: +5.490e+00   |Residual|: 1.780e+00   |deigs|: 9.314e-03  t[s]:   7731.89
SCF: Cycle: 17   Etot: -1016.673440957053003   dEtot: -3.931e+00   |Residual|: 1.262e+00   |deigs|: 2.258e-02  t[s]:   7766.51
SCF: Cycle: 18   Etot: -1019.542579159648085   dEtot: -2.869e+00   |Residual|: 7.137e-01   |deigs|: 9.683e-03  t[s]:   7801.31
SCF: Cycle: 19   Etot: -1014.868548115879094   dEtot: +4.674e+00   |Residual|: 1.552e+00   |deigs|: 3.092e-02  t[s]:   7836.07
SCF: Cycle: 20   Etot: -1018.353114990299559   dEtot: -3.485e+00   |Residual|: 9.756e-01   |deigs|: 2.586e-02  t[s]:   7870.72
SCF: Cycle: 21   Etot: -1020.655361205742906   dEtot: -2.302e+00   |Residual|: 3.019e-01   |deigs|: 1.395e-02  t[s]:   7905.50
SCF: Cycle: 22   Etot: -1020.079758346769950   dEtot: +5.756e-01   |Residual|: 5.335e-01   |deigs|: 7.332e-03  t[s]:   7940.25
SCF: Cycle: 23   Etot: -1020.704659949851816   dEtot: -6.249e-01   |Residual|: 1.271e-01   |deigs|: 8.972e-03  t[s]:   7974.81
SCF: Cycle: 24   Etot: -1020.643516493445077   dEtot: +6.114e-02   |Residual|: 2.178e-01   |deigs|: 7.709e-03  t[s]:   8009.30
SCF: Cycle: 25   Etot: -1020.695788445443668   dEtot: -5.227e-02   |Residual|: 1.570e-01   |deigs|: 2.622e-03  t[s]:   8043.88
SCF: Cycle: 26   Etot: -1020.668619516603485   dEtot: +2.717e-02   |Residual|: 1.894e-01   |deigs|: 1.950e-03  t[s]:   8077.90
SCF: Cycle: 27   Etot: -1020.613273726751686   dEtot: +5.535e-02   |Residual|: 2.415e-01   |deigs|: 1.033e-03  t[s]:   8112.15
SCF: Cycle: 28   Etot: -1020.488204450526041   dEtot: +1.251e-01   |Residual|: 3.294e-01   |deigs|: 1.425e-03  t[s]:   8146.37
SCF: Cycle: 29   Etot: -1020.552155008356067   dEtot: -6.395e-02   |Residual|: 2.886e-01   |deigs|: 2.120e-03  t[s]:   8180.70
SCF: Cycle: 30   Etot: -1020.722355928476190   dEtot: -1.702e-01   |Residual|: 1.270e-01   |deigs|: 4.912e-03  t[s]:   8215.50
SCF: Cycle: 31   Etot: -1020.742183737981577   dEtot: -1.983e-02   |Residual|: 9.024e-02   |deigs|: 2.987e-03  t[s]:   8249.96
SCF: Cycle: 32   Etot: -1020.678823411871463   dEtot: +6.336e-02   |Residual|: 1.809e-01   |deigs|: 1.811e-03  t[s]:   8284.77
SCF: Cycle: 33   Etot: -1020.694140090118140   dEtot: -1.532e-02   |Residual|: 1.630e-01   |deigs|: 2.551e-03  t[s]:   8319.60
SCF: Cycle: 34   Etot: -1020.413731826285812   dEtot: +2.804e-01   |Residual|: 3.854e-01   |deigs|: 7.228e-03  t[s]:   8354.46
SCF: Cycle: 35   Etot: -1009.162287922235237   dEtot: +1.125e+01   |Residual|: 2.180e+00   |deigs|: 2.619e-02  t[s]:   8389.02
SCF: Cycle: 36   Etot: -1019.045160264688207   dEtot: -9.883e+00   |Residual|: 8.100e-01   |deigs|: 3.505e-02  t[s]:   8423.78
SCF: Cycle: 37   Etot: -1020.120225416982407   dEtot: -1.075e+00   |Residual|: 4.959e-01   |deigs|: 2.190e-03  t[s]:   8458.43
SCF: Cycle: 38   Etot: -1020.319737841321057   dEtot: -1.995e-01   |Residual|: 4.132e-01   |deigs|: 5.270e-04  t[s]:   8492.99
SCF: Cycle: 39   Etot: -1020.427933482108642   dEtot: -1.082e-01   |Residual|: 3.616e-01   |deigs|: 9.535e-04  t[s]:   8529.76
SCF: Cycle: 40   Etot: -1020.342860860776113   dEtot: +8.507e-02   |Residual|: 4.101e-01   |deigs|: 3.297e-03  t[s]:   8565.36
SCF: Cycle: 41   Etot: -1019.756961735443156   dEtot: +5.859e-01   |Residual|: 6.441e-01   |deigs|: 7.409e-03  t[s]:   8600.12
SCF: Cycle: 42   Etot: -1019.746329610278053   dEtot: +1.063e-02   |Residual|: 6.370e-01   |deigs|: 3.253e-03  t[s]:   8634.82
SCF: Cycle: 43   Etot: -1019.665898756252091   dEtot: +8.043e-02   |Residual|: 6.629e-01   |deigs|: 1.315e-03  t[s]:   8669.45
SCF: Cycle: 44   Etot: -1020.490291322458233   dEtot: -8.244e-01   |Residual|: 3.138e-01   |deigs|: 1.001e-02  t[s]:   8704.11
SCF: Cycle: 45   Etot: -1020.727916606155418   dEtot: -2.376e-01   |Residual|: 7.330e-02   |deigs|: 6.445e-03  t[s]:   8740.06
SCF: Cycle: 46   Etot: -1020.703266743829317   dEtot: +2.465e-02   |Residual|: 1.298e-01   |deigs|: 2.535e-03  t[s]:   8775.21
SCF: Cycle: 47   Etot: -1020.744691476736762   dEtot: -4.142e-02   |Residual|: 1.524e-02   |deigs|: 4.029e-03  t[s]:   8809.86
SCF: Cycle: 48   Etot: -1020.744918127554456   dEtot: -2.267e-04   |Residual|: 2.408e-02   |deigs|: 1.443e-03  t[s]:   8844.70
SCF: Cycle: 49   Etot: -1020.738839690547138   dEtot: +6.078e-03   |Residual|: 5.674e-02   |deigs|: 1.177e-03  t[s]:   8878.81
Calculating stress tensor...  done!

R = 
[    10.8905    5.44526    5.44526  ]
[          0    9.43146    3.14382  ]
[          0          0    8.89207  ]
unit cell volume = 913.335

# Strain Tensor:
[  -4.8349e-20            0            0  ]
[            0  -4.8349e-20            0  ]
[            0            0  -4.8349e-20  ]

# Stress Tensor:
[  0.000241252            0            0  ]
[            0  0.000241252            0  ]
[            0            0  0.000241252  ]


# Ionic positions in lattice coordinates:
ion Co   0.125000000000000   0.125000000000000   0.125000000000000 1
ion Co   0.500000000000000   0.500000000000000   0.500000000000000 1
ion Co   0.125000000000000   0.625000000000000   0.125000000000000 1
ion Co   0.125000000000000   0.125000000000000   0.625000000000000 1
ion Co   0.750000000000000   0.750000000000000   0.750000000000000 1
ion Co   0.625000000000000   0.125000000000000   0.125000000000000 1
ion O   0.361246239267109   0.361246239267109   0.361246239267109 1
ion O   0.333738717801328   0.888753760732891   0.888753760732891 1
ion O   0.361246239267109   0.361246239267109   0.916261282198672 1
ion O   0.916261282198672   0.361246239267109   0.361246239267109 1
ion O   0.361246239267109   0.916261282198672   0.361246239267109 1
ion O   0.888753760732891   0.888753760732891   0.333738717801328 1
ion O   0.888753760732891   0.888753760732891   0.888753760732891 1
ion O   0.888753760732891   0.333738717801328   0.888753760732891 1


# Forces in Lattice coordinates:
force Co  -0.000000000000000  -0.000000000000000   0.000000000000000 1
force Co  -0.000000000000000   0.000000000000000  -0.000000000000000 1
force Co  -0.000000000000000  -0.000000000000000   0.000000000000000 1
force Co  -0.000000000000000  -0.000000000000000   0.000000000000000 1
force Co   0.000000000000000   0.000000000000000   0.000000000000000 1
force Co   0.000000000000000  -0.000000000000000  -0.000000000000000 1
force O   0.098786044602033   0.098786044602040   0.098786044602039 1
force O   0.098786044602040  -0.000000000000000   0.000000000000000 1
force O  -0.000000000000000  -0.000000000000000  -0.098786044602025 1
force O  -0.098786044602025  -0.000000000000000   0.000000000000000 1
force O  -0.000000000000000  -0.098786044602025   0.000000000000000 1
force O   0.000000000000000  -0.000000000000000   0.098786044602032 1
force O  -0.098786044602019  -0.098786044602019  -0.098786044602025 1
force O   0.000000000000000   0.098786044602033   0.000000000000000 1

# Energy components:
   Eewald =     -619.8531209079171731
       EH =      358.9103426898362272
     Eloc =     -996.1085146397608696
      Enl =      174.0809370828413307
      Exc =     -126.8279515857020527
 Exc_core =        3.7843577865034161
       KE =      185.2751098836529309
-------------------------------------
     Etot =    -1020.7388396905462287


Dumping 'Si.wfns' ... done
Dumping 'Si.ionpos' ... done
Dumping 'Si.lattice' ... done
Dumping 'Si.n' ... done
LatticeMinimize: Iter:   1  Etot: -1020.738839690546229  |grad|_K:  4.707e-02  alpha:  8.089e-29  linmin: -3.113e-01  t[s]:   8915.32

#--- Lowdin population analysis ---
# oxidation-state Co +0.301 +0.205 +0.301 +0.301 +0.205 +0.301
# oxidation-state O -0.178 -0.178 -0.178 -0.178 -0.178 -0.178 -0.178 -0.178


-------- Electronic minimization -----------
Will mix electronic density at each iteration.
SCF: Cycle:  0   Etot: -1018.523189681024405   dEtot: +2.216e+00   |Residual|: 9.735e-01   |deigs|: 2.166e-03  t[s]:   8975.40
SCF: Cycle:  1   Etot: -1007.977042067607954   dEtot: +1.055e+01   |Residual|: 2.751e+00   |deigs|: 1.179e-01  t[s]:   9009.86
SCF: Cycle:  2   Etot: -1013.468765416142332   dEtot: -5.492e+00   |Residual|: 1.766e+00   |deigs|: 1.169e-01  t[s]:   9044.35
SCF: Cycle:  3   Etot: -1017.182492565302709   dEtot: -3.714e+00   |Residual|: 1.130e+00   |deigs|: 1.740e-02  t[s]:   9078.87
SCF: Cycle:  4   Etot: -1018.785230140641602   dEtot: -1.603e+00   |Residual|: 8.120e-01   |deigs|: 4.668e-03  t[s]:   9113.52
SCF: Cycle:  5   Etot: -1019.814904926371696   dEtot: -1.030e+00   |Residual|: 5.449e-01   |deigs|: 1.752e-03  t[s]:   9148.17
SCF: Cycle:  6   Etot: -1019.749124710005162   dEtot: +6.578e-02   |Residual|: 5.859e-01   |deigs|: 1.232e-02  t[s]:   9182.57
SCF: Cycle:  7   Etot: -1019.297227606145725   dEtot: +4.519e-01   |Residual|: 7.708e-01   |deigs|: 1.113e-02  t[s]:   9217.32
SCF: Cycle:  8   Etot: -1019.456176346192819   dEtot: -1.589e-01   |Residual|: 7.308e-01   |deigs|: 1.567e-03  t[s]:   9252.12
SCF: Cycle:  9   Etot: -1020.017341385668601   dEtot: -5.612e-01   |Residual|: 5.133e-01   |deigs|: 1.057e-02  t[s]:   9286.81
SCF: Cycle: 10   Etot: -1020.638882475223909   dEtot: -6.215e-01   |Residual|: 1.476e-01   |deigs|: 3.226e-03  t[s]:   9321.46
SCF: Cycle: 11   Etot: -1020.667742333733145   dEtot: -2.886e-02   |Residual|: 1.134e-01   |deigs|: 5.334e-03  t[s]:   9356.20
SCF: Cycle: 12   Etot: -1020.614232305421524   dEtot: +5.351e-02   |Residual|: 1.941e-01   |deigs|: 2.849e-03  t[s]:   9391.03
SCF: Cycle: 13   Etot: -1020.695802432598725   dEtot: -8.157e-02   |Residual|: 1.024e-01   |deigs|: 9.963e-03  t[s]:   9425.77
SCF: Cycle: 14   Etot: -1020.692026025831865   dEtot: +3.776e-03   |Residual|: 1.133e-01   |deigs|: 3.449e-03  t[s]:   9460.32
SCF: Cycle: 15   Etot: -1020.698630311698594   dEtot: -6.604e-03   |Residual|: 1.066e-01   |deigs|: 4.942e-03  t[s]:   9495.17
SCF: Cycle: 16   Etot: -1020.715461066791704   dEtot: -1.683e-02   |Residual|: 4.227e-02   |deigs|: 6.575e-03  t[s]:   9529.91
SCF: Cycle: 17   Etot: -1020.644000839286605   dEtot: +7.146e-02   |Residual|: 2.034e-01   |deigs|: 6.740e-03  t[s]:   9564.64
SCF: Cycle: 18   Etot: -1020.384613829321552   dEtot: +2.594e-01   |Residual|: 3.727e-01   |deigs|: 4.048e-03  t[s]:   9599.25
SCF: Cycle: 19   Etot: -1020.511395872379808   dEtot: -1.268e-01   |Residual|: 2.943e-01   |deigs|: 3.487e-03  t[s]:   9633.92
SCF: Cycle: 20   Etot: -1020.562328766895689   dEtot: -5.093e-02   |Residual|: 2.654e-01   |deigs|: 8.849e-04  t[s]:   9667.94
SCF: Cycle: 21   Etot: -1020.665691613004583   dEtot: -1.034e-01   |Residual|: 1.695e-01   |deigs|: 2.169e-03  t[s]:   9702.02
SCF: Cycle: 22   Etot: -1020.717791259019236   dEtot: -5.210e-02   |Residual|: 9.737e-02   |deigs|: 1.149e-03  t[s]:   9736.41
SCF: Cycle: 23   Etot: -1020.718837066334345   dEtot: -1.046e-03   |Residual|: 1.070e-01   |deigs|: 1.331e-03  t[s]:   9770.65
SCF: Cycle: 24   Etot: -1020.601698467702136   dEtot: +1.171e-01   |Residual|: 2.670e-01   |deigs|: 9.393e-03  t[s]:   9805.36
SCF: Cycle: 25   Etot: -1020.611780111591997   dEtot: -1.008e-02   |Residual|: 2.846e-01   |deigs|: 2.997e-03  t[s]:   9840.04
SCF: Cycle: 26   Etot: -1020.736103264072881   dEtot: -1.243e-01   |Residual|: 1.822e-01   |deigs|: 7.115e-03  t[s]:   9874.64
SCF: Cycle: 27   Etot: -1020.712460707831042   dEtot: +2.364e-02   |Residual|: 1.072e-01   |deigs|: 5.141e-03  t[s]:   9909.38
SCF: Cycle: 28   Etot: -1020.713554988906594   dEtot: -1.094e-03   |Residual|: 1.089e-01   |deigs|: 1.115e-03  t[s]:   9944.04
SCF: Cycle: 29   Etot: -1020.744310839658056   dEtot: -3.076e-02   |Residual|: 1.112e-02   |deigs|: 3.348e-03  t[s]:   9978.89
SCF: Cycle: 30   Etot: -1020.745092754710981   dEtot: -7.819e-04   |Residual|: 7.650e-03   |deigs|: 1.221e-03  t[s]:  10013.02
SCF: Cycle: 31   Etot: -1020.744679629334996   dEtot: +4.131e-04   |Residual|: 2.000e-02   |deigs|: 6.049e-04  t[s]:  10045.41
SCF: Cycle: 32   Etot: -1020.742510237236388   dEtot: +2.169e-03   |Residual|: 3.675e-02   |deigs|: 2.674e-04  t[s]:  10075.41
SCF: Cycle: 33   Etot: -1020.741928592560953   dEtot: +5.816e-04   |Residual|: 4.051e-02   |deigs|: 1.294e-04  t[s]:  10102.98
SCF: Cycle: 34   Etot: -1020.740033451339741   dEtot: +1.895e-03   |Residual|: 5.003e-02   |deigs|: 2.007e-04  t[s]:  10128.30
SCF: Cycle: 35   Etot: -1020.741928058884014   dEtot: -1.895e-03   |Residual|: 4.548e-02   |deigs|: 3.246e-04  t[s]:  10152.01
SCF: Cycle: 36   Etot: -1020.744919077364671   dEtot: -2.991e-03   |Residual|: 3.158e-02   |deigs|: 6.077e-04  t[s]:  10178.94
SCF: Cycle: 37   Etot: -1020.743850194350216   dEtot: +1.069e-03   |Residual|: 3.885e-02   |deigs|: 4.746e-04  t[s]:  10204.45
SCF: Cycle: 38   Etot: -1020.738360116958120   dEtot: +5.490e-03   |Residual|: 6.155e-02   |deigs|: 5.280e-04  t[s]:  10234.46
SCF: Cycle: 39   Etot: -1020.735702629188040   dEtot: +2.657e-03   |Residual|: 7.039e-02   |deigs|: 8.263e-05  t[s]:  10259.35
SCF: Cycle: 40   Etot: -1020.736588195095123   dEtot: -8.856e-04   |Residual|: 6.730e-02   |deigs|: 2.945e-04  t[s]:  10282.64
SCF: Cycle: 41   Etot: -1020.746921118870773   dEtot: -1.033e-02   |Residual|: 1.806e-02   |deigs|: 1.359e-03  t[s]:  10315.88
SCF: Cycle: 42   Etot: -1020.747096511809332   dEtot: -1.754e-04   |Residual|: 1.477e-02   |deigs|: 2.620e-04  t[s]:  10347.22
SCF: Cycle: 43   Etot: -1020.747254383309041   dEtot: -1.579e-04   |Residual|: 1.221e-02   |deigs|: 7.127e-04  t[s]:  10376.17
SCF: Cycle: 44   Etot: -1020.746939518793056   dEtot: +3.149e-04   |Residual|: 1.792e-02   |deigs|: 3.683e-04  t[s]:  10400.55
SCF: Cycle: 45   Etot: -1020.747003188705094   dEtot: -6.367e-05   |Residual|: 1.671e-02   |deigs|: 2.114e-04  t[s]:  10421.94
SCF: Cycle: 46   Etot: -1020.747042243937130   dEtot: -3.906e-05   |Residual|: 1.586e-02   |deigs|: 1.763e-04  t[s]:  10443.30
SCF: Cycle: 47   Etot: -1020.746405134291990   dEtot: +6.371e-04   |Residual|: 2.331e-02   |deigs|: 3.458e-04  t[s]:  10465.96
SCF: Cycle: 48   Etot: -1020.746642725098695   dEtot: -2.376e-04   |Residual|: 2.025e-02   |deigs|: 3.146e-04  t[s]:  10487.56
SCF: Cycle: 49   Etot: -1020.744741719734066   dEtot: +1.901e-03   |Residual|: 3.486e-02   |deigs|: 6.530e-04  t[s]:  10513.44
Calculating stress tensor...  done!
LatticeMinimize: 	Wolfe criterion not satisfied: alpha: 1  (E-E0)/|gdotd0|: -1.40619e+28  gdotd/gdotd0: 1.25343 (taking cubic step)

-------- Electronic minimization -----------
Will mix electronic density at each iteration.
SCF: Cycle:  0   Etot: -1019.987501790585725   dEtot: +7.572e-01   |Residual|: 5.718e-01   |deigs|: 7.437e-04  t[s]:  10604.12
SCF: Cycle:  1   Etot: -1011.665008600602846   dEtot: +8.322e+00   |Residual|: 2.180e+00   |deigs|: 6.521e-02  t[s]:  10638.66
SCF: Cycle:  2   Etot: -1016.885008732018946   dEtot: -5.220e+00   |Residual|: 1.244e+00   |deigs|: 7.392e-02  t[s]:  10673.26
SCF: Cycle:  3   Etot: -1018.887081970858048   dEtot: -2.002e+00   |Residual|: 8.232e-01   |deigs|: 9.568e-03  t[s]:  10707.84
SCF: Cycle:  4   Etot: -1019.640908774837499   dEtot: -7.538e-01   |Residual|: 6.276e-01   |deigs|: 1.057e-03  t[s]:  10742.47
SCF: Cycle:  5   Etot: -1020.421032071080504   dEtot: -7.801e-01   |Residual|: 3.172e-01   |deigs|: 2.461e-03  t[s]:  10777.19
SCF: Cycle:  6   Etot: -1020.402314977068954   dEtot: +1.872e-02   |Residual|: 3.444e-01   |deigs|: 5.861e-03  t[s]:  10812.03
SCF: Cycle:  7   Etot: -1020.277706705906326   dEtot: +1.246e-01   |Residual|: 4.153e-01   |deigs|: 2.738e-03  t[s]:  10846.91
SCF: Cycle:  8   Etot: -1020.203513668276969   dEtot: +7.419e-02   |Residual|: 4.522e-01   |deigs|: 9.180e-04  t[s]:  10881.31
SCF: Cycle:  9   Etot: -1020.276044198706131   dEtot: -7.253e-02   |Residual|: 4.199e-01   |deigs|: 6.991e-04  t[s]:  10915.54
SCF: Cycle: 10   Etot: -1020.277587368456579   dEtot: -1.543e-03   |Residual|: 4.206e-01   |deigs|: 3.520e-04  t[s]:  10948.72
SCF: Cycle: 11   Etot: -1020.663895052464113   dEtot: -3.863e-01   |Residual|: 3.065e-01   |deigs|: 1.688e-02  t[s]:  10983.33
SCF: Cycle: 12   Etot: -1020.528082575222243   dEtot: +1.358e-01   |Residual|: 3.110e-01   |deigs|: 1.387e-02  t[s]:  11018.05
SCF: Cycle: 13   Etot: -1020.403672412037167   dEtot: +1.244e-01   |Residual|: 3.911e-01   |deigs|: 6.784e-04  t[s]:  11052.74
SCF: Cycle: 14   Etot: -1020.546719012104518   dEtot: -1.430e-01   |Residual|: 3.439e-01   |deigs|: 2.991e-03  t[s]:  11087.73
SCF: Cycle: 15   Etot: -1020.707339412803094   dEtot: -1.606e-01   |Residual|: 2.288e-01   |deigs|: 3.958e-03  t[s]:  11122.41
SCF: Cycle: 16   Etot: -1020.731180708829129   dEtot: -2.384e-02   |Residual|: 1.488e-01   |deigs|: 2.670e-03  t[s]:  11157.02
SCF: Cycle: 17   Etot: -1020.704691565792473   dEtot: +2.649e-02   |Residual|: 1.833e-01   |deigs|: 5.177e-04  t[s]:  11191.71
SCF: Cycle: 18   Etot: -1020.440616368060887   dEtot: +2.641e-01   |Residual|: 3.504e-01   |deigs|: 5.023e-03  t[s]:  11226.56
SCF: Cycle: 19   Etot: -1020.436044815943546   dEtot: +4.572e-03   |Residual|: 3.583e-01   |deigs|: 2.491e-03  t[s]:  11261.38
SCF: Cycle: 20   Etot: -1020.734306054162062   dEtot: -2.983e-01   |Residual|: 6.487e-02   |deigs|: 8.576e-03  t[s]:  11296.12
SCF: Cycle: 21   Etot: -1020.708340691896524   dEtot: +2.597e-02   |Residual|: 1.266e-01   |deigs|: 4.807e-03  t[s]:  11330.82
SCF: Cycle: 22   Etot: -1020.718943587457716   dEtot: -1.060e-02   |Residual|: 1.083e-01   |deigs|: 9.024e-04  t[s]:  11365.59
SCF: Cycle: 23   Etot: -1020.744347398626132   dEtot: -2.540e-02   |Residual|: 3.446e-02   |deigs|: 1.882e-03  t[s]:  11400.23
SCF: Cycle: 24   Etot: -1020.741482218914939   dEtot: +2.865e-03   |Residual|: 4.832e-02   |deigs|: 1.919e-03  t[s]:  11434.90
SCF: Cycle: 25   Etot: -1020.733396525593662   dEtot: +8.086e-03   |Residual|: 7.430e-02   |deigs|: 3.732e-04  t[s]:  11469.09
SCF: Cycle: 26   Etot: -1020.729312847506776   dEtot: +4.084e-03   |Residual|: 8.480e-02   |deigs|: 1.353e-04  t[s]:  11498.36
SCF: Cycle: 27   Etot: -1020.745290525391852   dEtot: -1.598e-02   |Residual|: 3.000e-02   |deigs|: 3.266e-03  t[s]:  11532.68
SCF: Cycle: 28   Etot: -1020.721274507819658   dEtot: +2.402e-02   |Residual|: 1.036e-01   |deigs|: 1.262e-03  t[s]:  11566.82
SCF: Cycle: 29   Etot: -1020.719613762560812   dEtot: +1.661e-03   |Residual|: 1.075e-01   |deigs|: 4.907e-04  t[s]:  11599.28
SCF: Cycle: 30   Etot: -1020.709660721408909   dEtot: +9.953e-03   |Residual|: 1.249e-01   |deigs|: 3.260e-04  t[s]:  11629.08
SCF: Cycle: 31   Etot: -1020.715767264940723   dEtot: -6.107e-03   |Residual|: 1.132e-01   |deigs|: 6.881e-04  t[s]:  11659.14
SCF: Cycle: 32   Etot: -1020.708534873518261   dEtot: +7.232e-03   |Residual|: 1.261e-01   |deigs|: 4.905e-04  t[s]:  11686.45
SCF: Cycle: 33   Etot: -1020.716268944884177   dEtot: -7.734e-03   |Residual|: 1.121e-01   |deigs|: 6.823e-04  t[s]:  11713.60
SCF: Cycle: 34   Etot: -1020.716509564278795   dEtot: -2.406e-04   |Residual|: 1.116e-01   |deigs|: 7.694e-05  t[s]:  11734.12
SCF: Cycle: 35   Etot: -1020.747194415840568   dEtot: -3.068e-02   |Residual|: 3.606e-03   |deigs|: 2.681e-03  t[s]:  11768.23
SCF: Cycle: 36   Etot: -1020.745501117832760   dEtot: +1.693e-03   |Residual|: 3.046e-02   |deigs|: 1.651e-04  t[s]:  11802.54
SCF: Cycle: 37   Etot: -1020.737755000026482   dEtot: +7.746e-03   |Residual|: 6.411e-02   |deigs|: 5.109e-04  t[s]:  11834.84
SCF: Cycle: 38   Etot: -1020.742084359511409   dEtot: -4.329e-03   |Residual|: 4.739e-02   |deigs|: 8.391e-04  t[s]:  11865.04
SCF: Cycle: 39   Etot: -1020.744307337892110   dEtot: -2.223e-03   |Residual|: 3.535e-02   |deigs|: 4.681e-04  t[s]:  11891.14
SCF: Cycle: 40   Etot: -1020.746808766055892   dEtot: -2.501e-03   |Residual|: 1.750e-02   |deigs|: 3.025e-04  t[s]:  11920.12
SCF: Cycle: 41   Etot: -1020.747552624808577   dEtot: -7.439e-04   |Residual|: 5.130e-03   |deigs|: 2.039e-04  t[s]:  11948.88
SCF: Cycle: 42   Etot: -1020.747446802056174   dEtot: +1.058e-04   |Residual|: 8.225e-03   |deigs|: 4.369e-04  t[s]:  11970.78
SCF: Cycle: 43   Etot: -1020.747492843686814   dEtot: -4.604e-05   |Residual|: 6.916e-03   |deigs|: 1.491e-04  t[s]:  11991.78
SCF: Cycle: 44   Etot: -1020.747522392622727   dEtot: -2.955e-05   |Residual|: 6.391e-03   |deigs|: 8.298e-05  t[s]:  12012.75
SCF: Cycle: 45   Etot: -1020.747564864869446   dEtot: -4.247e-05   |Residual|: 4.260e-03   |deigs|: 8.900e-05  t[s]:  12033.59
SCF: Cycle: 46   Etot: -1020.747602306071371   dEtot: -3.744e-05   |Residual|: 4.740e-04   |deigs|: 1.624e-04  t[s]:  12054.60
SCF: Cycle: 47   Etot: -1020.747593904181258   dEtot: +8.402e-06   |Residual|: 2.201e-03   |deigs|: 8.608e-05  t[s]:  12075.67
SCF: Cycle: 48   Etot: -1020.747576136775251   dEtot: +1.777e-05   |Residual|: 3.789e-03   |deigs|: 2.356e-05  t[s]:  12095.73
SCF: Cycle: 49   Etot: -1020.747561935387125   dEtot: +1.420e-05   |Residual|: 4.306e-03   |deigs|: 4.047e-05  t[s]:  12115.79
Calculating stress tensor...  done!
LatticeMinimize: 	Wolfe criterion not satisfied: alpha: 1  (E-E0)/|gdotd0|: -2.07812e+28  gdotd/gdotd0: 1.11626 (taking cubic step)

-------- Electronic minimization -----------
Will mix electronic density at each iteration.
SCF: Cycle:  0   Etot: -1020.734046906428375   dEtot: +1.352e-02   |Residual|: 7.619e-02   |deigs|: 1.337e-05  t[s]:  12206.10
SCF: Cycle:  1   Etot: -1020.534147441968571   dEtot: +1.999e-01   |Residual|: 3.207e-01   |deigs|: 1.288e-02  t[s]:  12241.19
SCF: Cycle:  2   Etot: -1020.713484338892613   dEtot: -1.793e-01   |Residual|: 1.149e-01   |deigs|: 1.029e-02  t[s]:  12276.80
SCF: Cycle:  3   Etot: -1020.738897422858713   dEtot: -2.541e-02   |Residual|: 5.233e-02   |deigs|: 1.633e-03  t[s]:  12311.58
SCF: Cycle:  4   Etot: -1020.747032339069960   dEtot: -8.135e-03   |Residual|: 6.860e-03   |deigs|: 2.317e-04  t[s]:  12346.32
SCF: Cycle:  5   Etot: -1020.747268070694531   dEtot: -2.357e-04   |Residual|: 1.007e-02   |deigs|: 4.385e-05  t[s]:  12377.63
SCF: Cycle:  6   Etot: -1020.746567032402368   dEtot: +7.010e-04   |Residual|: 2.070e-02   |deigs|: 1.855e-04  t[s]:  12407.67
SCF: Cycle:  7   Etot: -1020.746288712145088   dEtot: +2.783e-04   |Residual|: 2.318e-02   |deigs|: 2.969e-04  t[s]:  12436.69
SCF: Cycle:  8   Etot: -1020.746368378521652   dEtot: -7.967e-05   |Residual|: 2.238e-02   |deigs|: 1.052e-04  t[s]:  12459.93
SCF: Cycle:  9   Etot: -1020.746481945693517   dEtot: -1.136e-04   |Residual|: 2.178e-02   |deigs|: 3.211e-05  t[s]:  12478.60
SCF: Cycle: 10   Etot: -1020.746675322208716   dEtot: -1.934e-04   |Residual|: 2.033e-02   |deigs|: 7.905e-05  t[s]:  12499.91
SCF: Cycle: 11   Etot: -1020.747184550048132   dEtot: -5.092e-04   |Residual|: 1.836e-02   |deigs|: 1.536e-04  t[s]:  12520.16
SCF: Cycle: 12   Etot: -1020.747574025558833   dEtot: -3.895e-04   |Residual|: 1.593e-02   |deigs|: 1.233e-04  t[s]:  12541.59
SCF: Cycle: 13   Etot: -1020.746736669665552   dEtot: +8.374e-04   |Residual|: 2.534e-02   |deigs|: 4.970e-04  t[s]:  12564.20
SCF: Cycle: 14   Etot: -1020.746267528679823   dEtot: +4.691e-04   |Residual|: 2.804e-02   |deigs|: 1.015e-04  t[s]:  12586.30
SCF: Cycle: 15   Etot: -1020.746487443266687   dEtot: -2.199e-04   |Residual|: 2.589e-02   |deigs|: 1.703e-03  t[s]:  12620.86
SCF: Cycle: 16   Etot: -1020.747772380741139   dEtot: -1.285e-03   |Residual|: 1.330e-02   |deigs|: 7.454e-04  t[s]:  12651.86
SCF: Cycle: 17   Etot: -1020.747784120768301   dEtot: -1.174e-05   |Residual|: 1.306e-02   |deigs|: 3.542e-05  t[s]:  12672.79
SCF: Cycle: 18   Etot: -1020.747752378246560   dEtot: +3.174e-05   |Residual|: 1.359e-02   |deigs|: 3.782e-05  t[s]:  12691.40
SCF: Cycle: 19   Etot: -1020.747899716516486   dEtot: -1.473e-04   |Residual|: 1.107e-02   |deigs|: 1.690e-04  t[s]:  12712.77
SCF: Cycle: 20   Etot: -1020.747988696350603   dEtot: -8.898e-05   |Residual|: 9.831e-03   |deigs|: 7.786e-05  t[s]:  12732.68
SCF: Cycle: 21   Etot: -1020.747780371090585   dEtot: +2.083e-04   |Residual|: 1.514e-02   |deigs|: 6.610e-04  t[s]:  12762.70
SCF: Cycle: 22   Etot: -1020.747930773639155   dEtot: -1.504e-04   |Residual|: 1.298e-02   |deigs|: 3.306e-04  t[s]:  12788.95
SCF: Cycle: 23   Etot: -1020.748268112246819   dEtot: -3.373e-04   |Residual|: 7.901e-03   |deigs|: 6.347e-04  t[s]:  12818.85
SCF: Cycle: 24   Etot: -1020.748365077817198   dEtot: -9.697e-05   |Residual|: 8.726e-03   |deigs|: 1.843e-04  t[s]:  12840.83
SCF: Cycle: 25   Etot: -1020.748422789577830   dEtot: -5.771e-05   |Residual|: 8.877e-03   |deigs|: 5.718e-05  t[s]:  12861.43
SCF: Cycle: 26   Etot: -1020.748470438781851   dEtot: -4.765e-05   |Residual|: 7.998e-03   |deigs|: 6.316e-05  t[s]:  12882.65
SCF: Cycle: 27   Etot: -1020.748473845286981   dEtot: -3.407e-06   |Residual|: 8.103e-03   |deigs|: 1.553e-05  t[s]:  12900.54
SCF: Cycle: 28   Etot: -1020.748633638473621   dEtot: -1.598e-04   |Residual|: 2.582e-03   |deigs|: 2.202e-04  t[s]:  12923.86
SCF: Cycle: 29   Etot: -1020.748662975305024   dEtot: -2.934e-05   |Residual|: 1.481e-03   |deigs|: 1.928e-04  t[s]:  12944.98
SCF: Cycle: 30   Etot: -1020.748656978870258   dEtot: +5.996e-06   |Residual|: 3.060e-03   |deigs|: 5.426e-05  t[s]:  12964.98
SCF: Cycle: 31   Etot: -1020.748650681782237   dEtot: +6.297e-06   |Residual|: 3.461e-03   |deigs|: 1.432e-05  t[s]:  12983.99
SCF: Cycle: 32   Etot: -1020.748632959730344   dEtot: +1.772e-05   |Residual|: 4.816e-03   |deigs|: 8.342e-06  t[s]:  13001.20
SCF: Cycle: 33   Etot: -1020.748624318992825   dEtot: +8.641e-06   |Residual|: 5.118e-03   |deigs|: 7.534e-06  t[s]:  13019.69
SCF: Cycle: 34   Etot: -1020.748620827476316   dEtot: +3.492e-06   |Residual|: 5.329e-03   |deigs|: 7.208e-05  t[s]:  13040.33
SCF: Cycle: 35   Etot: -1020.748662220402366   dEtot: -4.139e-05   |Residual|: 3.255e-03   |deigs|: 1.315e-04  t[s]:  13061.88
SCF: Cycle: 36   Etot: -1020.748664388302359   dEtot: -2.168e-06   |Residual|: 3.788e-03   |deigs|: 4.330e-05  t[s]:  13082.33
SCF: Cycle: 37   Etot: -1020.748690623298330   dEtot: -2.623e-05   |Residual|: 2.303e-03   |deigs|: 9.211e-05  t[s]:  13103.64
SCF: Cycle: 38   Etot: -1020.748743465250755   dEtot: -5.284e-05   |Residual|: 1.296e-03   |deigs|: 2.313e-05  t[s]:  13122.09
SCF: Cycle: 39   Etot: -1020.748864427479248   dEtot: -1.210e-04   |Residual|: 6.412e-04   |deigs|: 5.475e-05  t[s]:  13139.12
SCF: Cycle: 40   Etot: -1020.748989318527492   dEtot: -1.249e-04   |Residual|: 6.846e-04   |deigs|: 6.242e-05  t[s]:  13157.48
SCF: Cycle: 41   Etot: -1020.749736274753900   dEtot: -7.470e-04   |Residual|: 7.093e-03   |deigs|: 3.298e-04  t[s]:  13176.02
SCF: Cycle: 42   Etot: -1020.749929974114593   dEtot: -1.937e-04   |Residual|: 1.059e-02   |deigs|: 1.264e-04  t[s]:  13197.34
SCF: Cycle: 43   Etot: -1020.749962550063628   dEtot: -3.258e-05   |Residual|: 1.021e-02   |deigs|: 4.075e-05  t[s]:  13217.60
SCF: Cycle: 44   Etot: -1020.749920145448414   dEtot: +4.240e-05   |Residual|: 1.126e-02   |deigs|: 5.112e-05  t[s]:  13237.83
SCF: Cycle: 45   Etot: -1020.749878326904650   dEtot: +4.182e-05   |Residual|: 1.190e-02   |deigs|: 2.990e-05  t[s]:  13256.08
SCF: Cycle: 46   Etot: -1020.749882336896349   dEtot: -4.010e-06   |Residual|: 1.182e-02   |deigs|: 6.295e-05  t[s]:  13277.03
SCF: Cycle: 47   Etot: -1020.749880468428955   dEtot: +1.868e-06   |Residual|: 1.184e-02   |deigs|: 2.307e-06  t[s]:  13294.39
SCF: Cycle: 48   Etot: -1020.749869558641990   dEtot: +1.091e-05   |Residual|: 1.212e-02   |deigs|: 1.721e-05  t[s]:  13314.06
SCF: Cycle: 49   Etot: -1020.749918326389661   dEtot: -4.877e-05   |Residual|: 1.127e-02   |deigs|: 5.727e-05  t[s]:  13334.85
Calculating stress tensor...  done!
LatticeMinimize: 	Wolfe criterion not satisfied: alpha: 1  (E-E0)/|gdotd0|: -2.63954e+28  gdotd/gdotd0: 1.07588 (taking cubic step)

-------- Electronic minimization -----------
Will mix electronic density at each iteration.
SCF: Cycle:  0   Etot: -1020.637869780496203   dEtot: +1.120e-01   |Residual|: 2.179e-01   |deigs|: 9.924e-05  t[s]:  13425.82
SCF: Cycle:  1   Etot: -1016.043662729282346   dEtot: +4.594e+00   |Residual|: 1.437e+00   |deigs|: 3.683e-02  t[s]:  13460.54
SCF: Cycle:  2   Etot: -1020.355528556975514   dEtot: -4.312e+00   |Residual|: 3.842e-01   |deigs|: 3.159e-02  t[s]:  13495.62
SCF: Cycle:  3   Etot: -1020.736536665710787   dEtot: -3.810e-01   |Residual|: 2.899e-02   |deigs|: 5.717e-03  t[s]:  13530.34
SCF: Cycle:  4   Etot: -1020.654783664304091   dEtot: +8.175e-02   |Residual|: 2.024e-01   |deigs|: 1.518e-03  t[s]:  13565.14
SCF: Cycle:  5   Etot: -1020.544881498762606   dEtot: +1.099e-01   |Residual|: 2.970e-01   |deigs|: 4.946e-04  t[s]:  13599.88
SCF: Cycle:  6   Etot: -1020.504322622846075   dEtot: +4.056e-02   |Residual|: 3.223e-01   |deigs|: 8.632e-04  t[s]:  13634.10
SCF: Cycle:  7   Etot: -1020.558187301044200   dEtot: -5.386e-02   |Residual|: 2.805e-01   |deigs|: 1.630e-03  t[s]:  13668.47
SCF: Cycle:  8   Etot: -1020.605887202056806   dEtot: -4.770e-02   |Residual|: 2.429e-01   |deigs|: 6.753e-04  t[s]:  13702.79
SCF: Cycle:  9   Etot: -1020.638517930411126   dEtot: -3.263e-02   |Residual|: 2.145e-01   |deigs|: 4.064e-04  t[s]:  13736.14
SCF: Cycle: 10   Etot: -1020.678718168749583   dEtot: -4.020e-02   |Residual|: 1.705e-01   |deigs|: 1.026e-03  t[s]:  13770.54
SCF: Cycle: 11   Etot: -1020.678523460730162   dEtot: +1.947e-04   |Residual|: 1.726e-01   |deigs|: 6.620e-04  t[s]:  13802.88
SCF: Cycle: 12   Etot: -1020.617168958498951   dEtot: +6.135e-02   |Residual|: 2.355e-01   |deigs|: 1.719e-03  t[s]:  13836.97
SCF: Cycle: 13   Etot: -1020.747092959564498   dEtot: -1.299e-01   |Residual|: 1.975e-02   |deigs|: 6.412e-03  t[s]:  13871.74
SCF: Cycle: 14   Etot: -1020.744287068067706   dEtot: +2.806e-03   |Residual|: 4.970e-02   |deigs|: 2.465e-04  t[s]:  13905.93
SCF: Cycle: 15   Etot: -1020.736974145763952   dEtot: +7.313e-03   |Residual|: 7.516e-02   |deigs|: 3.244e-04  t[s]:  13940.10
SCF: Cycle: 16   Etot: -1020.732150438613871   dEtot: +4.824e-03   |Residual|: 8.666e-02   |deigs|: 2.454e-04  t[s]:  13970.82
SCF: Cycle: 17   Etot: -1020.720332387746566   dEtot: +1.182e-02   |Residual|: 1.109e-01   |deigs|: 3.818e-04  t[s]:  14002.76
SCF: Cycle: 18   Etot: -1020.704536841070421   dEtot: +1.580e-02   |Residual|: 1.371e-01   |deigs|: 4.587e-04  t[s]:  14033.95
SCF: Cycle: 19   Etot: -1020.691570553850511   dEtot: +1.297e-02   |Residual|: 1.546e-01   |deigs|: 1.181e-04  t[s]:  14063.14
SCF: Cycle: 20   Etot: -1020.688020708838735   dEtot: +3.550e-03   |Residual|: 1.586e-01   |deigs|: 2.581e-04  t[s]:  14089.94
SCF: Cycle: 21   Etot: -1020.688163485042196   dEtot: -1.428e-04   |Residual|: 1.580e-01   |deigs|: 1.126e-04  t[s]:  14114.75
SCF: Cycle: 22   Etot: -1020.689262008274795   dEtot: -1.099e-03   |Residual|: 1.563e-01   |deigs|: 1.520e-04  t[s]:  14136.17
SCF: Cycle: 23   Etot: -1020.696617976396738   dEtot: -7.356e-03   |Residual|: 1.463e-01   |deigs|: 3.068e-04  t[s]:  14160.71
SCF: Cycle: 24   Etot: -1020.718328751925242   dEtot: -2.171e-02   |Residual|: 1.126e-01   |deigs|: 7.333e-04  t[s]:  14191.44
SCF: Cycle: 25   Etot: -1020.730670170929557   dEtot: -1.234e-02   |Residual|: 8.783e-02   |deigs|: 5.197e-04  t[s]:  14221.88
SCF: Cycle: 26   Etot: -1020.729661976748503   dEtot: +1.008e-03   |Residual|: 9.058e-02   |deigs|: 3.851e-04  t[s]:  14248.56
SCF: Cycle: 27   Etot: -1020.748608817192917   dEtot: -1.895e-02   |Residual|: 2.300e-02   |deigs|: 1.766e-03  t[s]:  14282.83
SCF: Cycle: 28   Etot: -1020.744852386431830   dEtot: +3.756e-03   |Residual|: 4.714e-02   |deigs|: 1.471e-03  t[s]:  14318.29
SCF: Cycle: 29   Etot: -1020.741913695911308   dEtot: +2.939e-03   |Residual|: 5.840e-02   |deigs|: 3.001e-04  t[s]:  14351.92
SCF: Cycle: 30   Etot: -1020.746617427393858   dEtot: -4.704e-03   |Residual|: 3.787e-02   |deigs|: 9.628e-04  t[s]:  14382.23
SCF: Cycle: 31   Etot: -1020.750126488585238   dEtot: -3.509e-03   |Residual|: 3.844e-03   |deigs|: 1.230e-03  t[s]:  14416.40
SCF: Cycle: 32   Etot: -1020.748095445320359   dEtot: +2.031e-03   |Residual|: 2.972e-02   |deigs|: 2.257e-04  t[s]:  14448.08
SCF: Cycle: 33   Etot: -1020.748113174412424   dEtot: -1.773e-05   |Residual|: 2.943e-02   |deigs|: 3.012e-04  t[s]:  14475.94
SCF: Cycle: 34   Etot: -1020.749016508528257   dEtot: -9.033e-04   |Residual|: 2.119e-02   |deigs|: 4.316e-04  t[s]:  14497.68
SCF: Cycle: 35   Etot: -1020.748954923632141   dEtot: +6.158e-05   |Residual|: 2.249e-02   |deigs|: 1.535e-04  t[s]:  14518.65
SCF: Cycle: 36   Etot: -1020.748994591552446   dEtot: -3.967e-05   |Residual|: 2.223e-02   |deigs|: 1.807e-05  t[s]:  14537.89
SCF: Cycle: 37   Etot: -1020.750146796002809   dEtot: -1.152e-03   |Residual|: 5.104e-03   |deigs|: 4.433e-04  t[s]:  14564.55
SCF: Cycle: 38   Etot: -1020.750219435864551   dEtot: -7.264e-05   |Residual|: 1.643e-03   |deigs|: 1.889e-04  t[s]:  14586.17
SCF: Cycle: 39   Etot: -1020.750206359594017   dEtot: +1.308e-05   |Residual|: 3.903e-03   |deigs|: 3.713e-04  t[s]:  14607.48
SCF: Cycle: 40   Etot: -1020.750124025230207   dEtot: +8.233e-05   |Residual|: 7.230e-03   |deigs|: 1.857e-04  t[s]:  14628.35
SCF: Cycle: 41   Etot: -1020.749971439013279   dEtot: +1.526e-04   |Residual|: 1.087e-02   |deigs|: 1.447e-04  t[s]:  14649.69
SCF: Cycle: 42   Etot: -1020.750038221379782   dEtot: -6.678e-05   |Residual|: 8.680e-03   |deigs|: 2.894e-04  t[s]:  14670.68
SCF: Cycle: 43   Etot: -1020.750201695276246   dEtot: -1.635e-04   |Residual|: 3.015e-03   |deigs|: 2.118e-04  t[s]:  14691.57
SCF: Cycle: 44   Etot: -1020.750210672262938   dEtot: -8.977e-06   |Residual|: 2.835e-03   |deigs|: 5.413e-05  t[s]:  14712.09
SCF: Cycle: 45   Etot: -1020.750217672997678   dEtot: -7.001e-06   |Residual|: 2.395e-03   |deigs|: 6.099e-06  t[s]:  14729.45
SCF: Cycle: 46   Etot: -1020.750222887177188   dEtot: -5.214e-06   |Residual|: 1.883e-03   |deigs|: 4.224e-05  t[s]:  14749.76
SCF: Cycle: 47   Etot: -1020.750231263936257   dEtot: -8.377e-06   |Residual|: 7.594e-04   |deigs|: 4.692e-05  t[s]:  14770.55
SCF: Cycle: 48   Etot: -1020.750233195421515   dEtot: -1.931e-06   |Residual|: 2.912e-04   |deigs|: 1.075e-05  t[s]:  14787.96
SCF: Cycle: 49   Etot: -1020.750233338669204   dEtot: -1.432e-07   |Residual|: 5.011e-04   |deigs|: 7.232e-06  t[s]:  14806.70
Calculating stress tensor...  done!
LatticeMinimize: 	Wolfe criterion not satisfied: alpha: 1  (E-E0)/|gdotd0|: -2.7146e+28  gdotd/gdotd0: 1.12118 (taking cubic step)

-------- Electronic minimization -----------
Will mix electronic density at each iteration.
SCF: Cycle:  0   Etot: -1020.750223185694153   dEtot: +1.015e-05   |Residual|: 2.710e-03   |deigs|: 2.625e-08  t[s]:  14883.54
SCF: Cycle:  1   Etot: -1020.750228931160791   dEtot: -5.745e-06   |Residual|: 2.549e-03   |deigs|: 3.855e-04  t[s]:  14904.44
SCF: Cycle:  2   Etot: -1020.750233113965919   dEtot: -4.183e-06   |Residual|: 9.289e-04   |deigs|: 1.454e-04  t[s]:  14925.36
SCF: Cycle:  3   Etot: -1020.750234031177115   dEtot: -9.172e-07   |Residual|: 3.390e-04   |deigs|: 6.637e-05  t[s]:  14946.16
SCF: Cycle:  4   Etot: -1020.750234212297300   dEtot: -1.811e-07   |Residual|: 2.360e-04   |deigs|: 9.872e-06  t[s]:  14967.07
SCF: Cycle:  5   Etot: -1020.750234353788755   dEtot: -1.415e-07   |Residual|: 6.068e-05   |deigs|: 1.162e-05  t[s]:  14987.98
SCF: Cycle:  6   Etot: -1020.750234398115367   dEtot: -4.433e-08   |Residual|: 2.942e-05   |deigs|: 3.677e-06  t[s]:  15008.89
SCF: Cycle:  7   Etot: -1020.750234441856946   dEtot: -4.374e-08   |Residual|: 4.962e-05   |deigs|: 3.874e-06  t[s]:  15030.19
SCF: Cycle:  8   Etot: -1020.750234527714156   dEtot: -8.586e-08   |Residual|: 1.805e-05   |deigs|: 2.338e-06  t[s]:  15052.18
SCF: Cycle:  9   Etot: -1020.750234569698250   dEtot: -4.198e-08   |Residual|: 1.864e-05   |deigs|: 7.531e-07  t[s]:  15069.73
SCF: Cycle: 10   Etot: -1020.750234586806300   dEtot: -1.711e-08   |Residual|: 1.229e-05   |deigs|: 7.174e-07  t[s]:  15086.80
SCF: Cycle: 11   Etot: -1020.750234618036529   dEtot: -3.123e-08   |Residual|: 2.296e-05   |deigs|: 5.706e-07  t[s]:  15106.64
SCF: Cycle: 12   Etot: -1020.750234661935337   dEtot: -4.390e-08   |Residual|: 1.200e-05   |deigs|: 1.051e-06  t[s]:  15124.98
SCF: Cycle: 13   Etot: -1020.750234685391661   dEtot: -2.346e-08   |Residual|: 5.961e-06   |deigs|: 1.609e-07  t[s]:  15141.01
SCF: Cycle: 14   Etot: -1020.750234694369283   dEtot: -8.978e-09   |Residual|: 1.258e-05   |deigs|: 2.293e-07  t[s]:  15156.93
[...]
Dumping 'Si.lattice' ... done
Dumping 'Si.n' ... done
LatticeMinimize: Iter:   8  Etot: -1020.758310455844594  |grad|_K:  4.333e-03  alpha:  1.000e+00  linmin:  3.220e-02  t[s]:  23739.91

#--- Lowdin population analysis ---
# oxidation-state Co +0.263 +0.253 +0.263 +0.263 +0.253 +0.263
# oxidation-state O -0.171 -0.171 -0.171 -0.171 -0.171 -0.171 -0.171 -0.171


-------- Electronic minimization -----------
Will mix electronic density at each iteration.
SCF: Cycle:  0   Etot: -1020.730842585213054   dEtot: +2.747e-02   |Residual|: 1.082e-01   |deigs|: 2.219e-05  t[s]:  23802.94
SCF: Cycle:  1   Etot: -1020.101690904124780   dEtot: +6.292e-01   |Residual|: 5.526e-01   |deigs|: 9.498e-03  t[s]:  23838.36
SCF: Cycle:  2   Etot: -1020.589006583116884   dEtot: -4.873e-01   |Residual|: 2.533e-01   |deigs|: 9.901e-03  t[s]:  23873.03
SCF: Cycle:  3   Etot: -1020.703489590844015   dEtot: -1.145e-01   |Residual|: 1.393e-01   |deigs|: 1.490e-03  t[s]:  23907.76
SCF: Cycle:  4   Etot: -1020.741453258421188   dEtot: -3.796e-02   |Residual|: 7.450e-02   |deigs|: 1.061e-04  t[s]:  23942.13
SCF: Cycle:  5   Etot: -1020.753703501851646   dEtot: -1.225e-02   |Residual|: 3.637e-02   |deigs|: 1.852e-04  t[s]:  23976.47
SCF: Cycle:  6   Etot: -1020.755235903365360   dEtot: -1.532e-03   |Residual|: 3.352e-02   |deigs|: 8.712e-04  t[s]:  24010.93
SCF: Cycle:  7   Etot: -1020.757087027492048   dEtot: -1.851e-03   |Residual|: 2.070e-02   |deigs|: 2.391e-04  t[s]:  24042.91
SCF: Cycle:  8   Etot: -1020.757955136822716   dEtot: -8.681e-04   |Residual|: 1.086e-02   |deigs|: 7.669e-05  t[s]:  24073.84
SCF: Cycle:  9   Etot: -1020.758165000804411   dEtot: -2.099e-04   |Residual|: 8.743e-03   |deigs|: 2.088e-04  t[s]:  24103.08
SCF: Cycle: 10   Etot: -1020.757527874115794   dEtot: +6.371e-04   |Residual|: 1.897e-02   |deigs|: 6.218e-05  t[s]:  24131.50
SCF: Cycle: 11   Etot: -1020.757131079927831   dEtot: +3.968e-04   |Residual|: 2.306e-02   |deigs|: 2.994e-05  t[s]:  24154.15
SCF: Cycle: 12   Etot: -1020.756866982109614   dEtot: +2.641e-04   |Residual|: 2.546e-02   |deigs|: 3.080e-05  t[s]:  24173.23
SCF: Cycle: 13   Etot: -1020.756700473936917   dEtot: +1.665e-04   |Residual|: 2.673e-02   |deigs|: 1.564e-05  t[s]:  24191.22
SCF: Cycle: 14   Etot: -1020.756366649614392   dEtot: +3.338e-04   |Residual|: 2.945e-02   |deigs|: 7.026e-05  t[s]:  24212.26
SCF: Cycle: 15   Etot: -1020.756287835712442   dEtot: +7.881e-05   |Residual|: 2.975e-02   |deigs|: 2.389e-05  t[s]:  24231.89
SCF: Cycle: 16   Etot: -1020.756132827019428   dEtot: +1.550e-04   |Residual|: 3.091e-02   |deigs|: 6.980e-06  t[s]:  24248.12
SCF: Cycle: 17   Etot: -1020.755998027943974   dEtot: +1.348e-04   |Residual|: 3.163e-02   |deigs|: 1.289e-05  t[s]:  24264.76
SCF: Cycle: 18   Etot: -1020.755944233251512   dEtot: +5.379e-05   |Residual|: 3.196e-02   |deigs|: 3.553e-06  t[s]:  24279.98
SCF: Cycle: 19   Etot: -1020.755801330854410   dEtot: +1.429e-04   |Residual|: 3.291e-02   |deigs|: 1.729e-05  t[s]:  24298.17
SCF: Cycle: 20   Etot: -1020.755687638298923   dEtot: +1.137e-04   |Residual|: 3.374e-02   |deigs|: 3.394e-05  t[s]:  24319.15
SCF: Cycle: 21   Etot: -1020.755906266009788   dEtot: -2.186e-04   |Residual|: 3.180e-02   |deigs|: 1.303e-04  t[s]:  24340.21
SCF: Cycle: 22   Etot: -1020.755819502153145   dEtot: +8.676e-05   |Residual|: 3.255e-02   |deigs|: 5.891e-05  t[s]:  24361.19
SCF: Cycle: 23   Etot: -1020.755647824651419   dEtot: +1.717e-04   |Residual|: 3.330e-02   |deigs|: 8.070e-05  t[s]:  24382.61
SCF: Cycle: 24   Etot: -1020.754720480875676   dEtot: +9.273e-04   |Residual|: 3.885e-02   |deigs|: 2.153e-04  t[s]:  24404.00
SCF: Cycle: 25   Etot: -1020.754771089127303   dEtot: -5.061e-05   |Residual|: 3.827e-02   |deigs|: 7.864e-05  t[s]:  24425.30
SCF: Cycle: 26   Etot: -1020.754352191911835   dEtot: +4.189e-04   |Residual|: 3.999e-02   |deigs|: 1.089e-04  t[s]:  24446.59
SCF: Cycle: 27   Etot: -1020.757539026000359   dEtot: -3.187e-03   |Residual|: 1.721e-02   |deigs|: 8.134e-04  t[s]:  24475.47
SCF: Cycle: 28   Etot: -1020.756326293655661   dEtot: +1.213e-03   |Residual|: 2.838e-02   |deigs|: 5.444e-04  t[s]:  24502.02
SCF: Cycle: 29   Etot: -1020.758979183270412   dEtot: -2.653e-03   |Residual|: 1.594e-02   |deigs|: 1.248e-03  t[s]:  24535.83
SCF: Cycle: 30   Etot: -1020.752681173076439   dEtot: +6.298e-03   |Residual|: 4.990e-02   |deigs|: 8.545e-04  t[s]:  24568.67
SCF: Cycle: 31   Etot: -1020.752920515397363   dEtot: -2.393e-04   |Residual|: 4.951e-02   |deigs|: 3.942e-04  t[s]:  24598.10
SCF: Cycle: 32   Etot: -1020.758770225168973   dEtot: -5.850e-03   |Residual|: 1.963e-02   |deigs|: 9.521e-04  t[s]:  24630.47
SCF: Cycle: 33   Etot: -1020.759675195700538   dEtot: -9.050e-04   |Residual|: 1.021e-02   |deigs|: 4.324e-04  t[s]:  24660.37
SCF: Cycle: 34   Etot: -1020.759649545791717   dEtot: +2.565e-05   |Residual|: 1.015e-02   |deigs|: 8.536e-05  t[s]:  24682.98
SCF: Cycle: 35   Etot: -1020.759650858958366   dEtot: -1.313e-06   |Residual|: 8.085e-03   |deigs|: 1.318e-04  t[s]:  24704.09
SCF: Cycle: 36   Etot: -1020.759657178023758   dEtot: -6.319e-06   |Residual|: 7.913e-03   |deigs|: 5.566e-05  t[s]:  24725.51
SCF: Cycle: 37   Etot: -1020.759704864516607   dEtot: -4.769e-05   |Residual|: 6.142e-03   |deigs|: 1.535e-04  t[s]:  24746.43
SCF: Cycle: 38   Etot: -1020.758799967681966   dEtot: +9.049e-04   |Residual|: 2.082e-02   |deigs|: 3.900e-04  t[s]:  24774.35
SCF: Cycle: 39   Etot: -1020.758231150152824   dEtot: +5.688e-04   |Residual|: 2.678e-02   |deigs|: 2.542e-04  t[s]:  24796.28
SCF: Cycle: 40   Etot: -1020.758682855905022   dEtot: -4.517e-04   |Residual|: 2.234e-02   |deigs|: 4.194e-04  t[s]:  24817.65
SCF: Cycle: 41   Etot: -1020.759147671448545   dEtot: -4.648e-04   |Residual|: 1.700e-02   |deigs|: 1.734e-04  t[s]:  24839.04
SCF: Cycle: 42   Etot: -1020.759543703498366   dEtot: -3.960e-04   |Residual|: 1.057e-02   |deigs|: 1.594e-04  t[s]:  24860.62
SCF: Cycle: 43   Etot: -1020.759458336486318   dEtot: +8.537e-05   |Residual|: 1.180e-02   |deigs|: 3.544e-04  t[s]:  24881.50
SCF: Cycle: 44   Etot: -1020.759521843310040   dEtot: -6.351e-05   |Residual|: 9.990e-03   |deigs|: 1.503e-04  t[s]:  24902.42
SCF: Cycle: 45   Etot: -1020.759518407719270   dEtot: +3.436e-06   |Residual|: 1.014e-02   |deigs|: 3.736e-05  t[s]:  24923.45
SCF: Cycle: 46   Etot: -1020.759399428322695   dEtot: +1.190e-04   |Residual|: 1.125e-02   |deigs|: 5.379e-04  t[s]:  24953.86
SCF: Cycle: 47   Etot: -1020.759724160582778   dEtot: -3.247e-04   |Residual|: 6.217e-03   |deigs|: 4.144e-04  t[s]:  24978.72
SCF: Cycle: 48   Etot: -1020.760184742390152   dEtot: -4.606e-04   |Residual|: 4.429e-03   |deigs|: 4.168e-04  t[s]:  25003.93
SCF: Cycle: 49   Etot: -1020.760264006370335   dEtot: -7.926e-05   |Residual|: 3.179e-03   |deigs|: 2.293e-04  t[s]:  25025.32
Calculating stress tensor...  done!

R = 
[    10.7386     5.3693     5.3693  ]
[          0    9.29991    3.09997  ]
[          0          0    8.76804  ]
unit cell volume = 875.647

# Strain Tensor:
[   -0.0139484            0            0  ]
[            0   -0.0139484            0  ]
[            0            0   -0.0139484  ]

# Stress Tensor:
[ -9.67389e-06            0            0  ]
[            0 -9.67389e-06            0  ]
[            0            0 -9.67389e-06  ]


# Ionic positions in lattice coordinates:
ion Co   0.125000000000000   0.125000000000000   0.125000000000000 1
ion Co   0.500000000000000   0.500000000000000   0.500000000000000 1
ion Co   0.125000000000000   0.625000000000000   0.125000000000000 1
ion Co   0.125000000000000   0.125000000000000   0.625000000000000 1
ion Co   0.750000000000000   0.750000000000000   0.750000000000000 1
ion Co   0.625000000000000   0.125000000000000   0.125000000000000 1
ion O   0.364845600545464   0.364845600545464   0.364845600545464 1
ion O   0.344536801636392   0.885154399454536   0.885154399454536 1
ion O   0.364845600545464   0.364845600545464   0.905463198363607 1
ion O   0.905463198363607   0.364845600545464   0.364845600545464 1
ion O   0.364845600545464   0.905463198363607   0.364845600545464 1
ion O   0.885154399454536   0.885154399454536   0.344536801636392 1
ion O   0.885154399454536   0.885154399454536   0.885154399454536 1
ion O   0.885154399454536   0.344536801636392   0.885154399454536 1


# Forces in Lattice coordinates:
force Co   0.000000000000000   0.000000000000000   0.000000000000000 1
force Co  -0.000000000000000  -0.000000000000000  -0.000000000000000 1
force Co   0.000000000000000  -0.000000000000000  -0.000000000000000 1
force Co  -0.000000000000000  -0.000000000000000   0.000000000000000 1
force Co   0.000000000000000  -0.000000000000000   0.000000000000000 1
force Co  -0.000000000000000   0.000000000000000   0.000000000000000 1
force O  -0.007556738451734  -0.007556738451741  -0.007556738451733 1
force O  -0.007556738451726  -0.000000000000000  -0.000000000000000 1
force O   0.000000000000000   0.000000000000000   0.007556738451733 1
force O   0.007556738451726   0.000000000000000  -0.000000000000000 1
force O   0.000000000000000   0.007556738451726   0.000000000000000 1
force O  -0.000000000000000  -0.000000000000000  -0.007556738451719 1
force O   0.007556738451712   0.007556738451697   0.007556738451691 1
force O  -0.000000000000000  -0.007556738451726  -0.000000000000000 1

# Energy components:
   Eewald =     -631.9726404218229163
       EH =      350.7381467257602026
     Eloc =     -976.0929768754895122
      Enl =      174.1220902596602116
      Exc =     -126.9796292477635973
 Exc_core =        3.7842879647820484
       KE =      185.6404575885039492
-------------------------------------
     Etot =    -1020.7602640063694253


Dumping 'Si.wfns' ... done
Dumping 'Si.ionpos' ... done
Dumping 'Si.lattice' ... done
Dumping 'Si.n' ... done
LatticeMinimize: Iter:   9  Etot: -1020.760264006369425  |grad|_K:  2.785e-03  alpha:  1.000e+00  linmin: -5.173e-02  t[s]:  25062.05

#--- Lowdin population analysis ---
# oxidation-state Co +0.259 +0.257 +0.259 +0.259 +0.257 +0.259
# oxidation-state O -0.170 -0.170 -0.170 -0.170 -0.170 -0.170 -0.170 -0.170


-------- Electronic minimization -----------
Will mix electronic density at each iteration.
SCF: Cycle:  0   Etot: -1020.757470803598608   dEtot: +2.761e-03   |Residual|: 3.547e-02   |deigs|: 1.195e-05  t[s]:  25122.83
SCF: Cycle:  1   Etot: -1020.718023263156283   dEtot: +3.945e-02   |Residual|: 1.434e-01   |deigs|: 4.015e-03  t[s]:  25159.55
SCF: Cycle:  2   Etot: -1020.752310656398322   dEtot: -3.429e-02   |Residual|: 5.561e-02   |deigs|: 2.843e-03  t[s]:  25194.62
SCF: Cycle:  3   Etot: -1020.757557511860114   dEtot: -5.247e-03   |Residual|: 3.088e-02   |deigs|: 5.022e-04  t[s]:  25228.34
SCF: Cycle:  4   Etot: -1020.759721199926162   dEtot: -2.164e-03   |Residual|: 1.328e-02   |deigs|: 6.900e-05  t[s]:  25258.36
SCF: Cycle:  5   Etot: -1020.760220021834925   dEtot: -4.988e-04   |Residual|: 3.552e-03   |deigs|: 1.645e-06  t[s]:  25283.29
SCF: Cycle:  6   Etot: -1020.760275118911636   dEtot: -5.510e-05   |Residual|: 2.273e-03   |deigs|: 1.070e-04  t[s]:  25309.00
SCF: Cycle:  7   Etot: -1020.760260830887660   dEtot: +1.429e-05   |Residual|: 3.814e-03   |deigs|: 1.900e-05  t[s]:  25327.96
SCF: Cycle:  8   Etot: -1020.760232795347520   dEtot: +2.804e-05   |Residual|: 5.062e-03   |deigs|: 7.317e-05  t[s]:  25348.91
SCF: Cycle:  9   Etot: -1020.760230688984620   dEtot: +2.106e-06   |Residual|: 5.150e-03   |deigs|: 2.802e-05  t[s]:  25367.72
SCF: Cycle: 10   Etot: -1020.760213958205441   dEtot: +1.673e-05   |Residual|: 6.067e-03   |deigs|: 3.811e-05  t[s]:  25388.71
SCF: Cycle: 11   Etot: -1020.760220479627492   dEtot: -6.521e-06   |Residual|: 5.676e-03   |deigs|: 4.613e-05  t[s]:  25408.83
SCF: Cycle: 12   Etot: -1020.760209501462214   dEtot: +1.098e-05   |Residual|: 6.242e-03   |deigs|: 1.782e-05  t[s]:  25428.47
SCF: Cycle: 13   Etot: -1020.760209606416083   dEtot: -1.050e-07   |Residual|: 6.184e-03   |deigs|: 1.167e-05  t[s]:  25444.95
SCF: Cycle: 14   Etot: -1020.760352826015719   dEtot: -1.432e-04   |Residual|: 5.974e-03   |deigs|: 1.828e-04  t[s]:  25479.83
SCF: Cycle: 15   Etot: -1020.760353076566389   dEtot: -2.506e-07   |Residual|: 7.042e-03   |deigs|: 9.234e-05  t[s]:  25501.26
SCF: Cycle: 16   Etot: -1020.760351782965245   dEtot: +1.294e-06   |Residual|: 7.188e-03   |deigs|: 1.650e-05  t[s]:  25523.93
SCF: Cycle: 17   Etot: -1020.760306922587347   dEtot: +4.486e-05   |Residual|: 8.408e-03   |deigs|: 8.564e-05  t[s]:  25545.31
SCF: Cycle: 18   Etot: -1020.760310980588883   dEtot: -4.058e-06   |Residual|: 8.188e-03   |deigs|: 1.141e-04  t[s]:  25566.21
SCF: Cycle: 19   Etot: -1020.760344584168138   dEtot: -3.360e-05   |Residual|: 6.983e-03   |deigs|: 7.650e-05  t[s]:  25587.14
SCF: Cycle: 20   Etot: -1020.760440644076311   dEtot: -9.606e-05   |Residual|: 3.247e-03   |deigs|: 1.728e-04  t[s]:  25608.20
SCF: Cycle: 21   Etot: -1020.760449863368194   dEtot: -9.219e-06   |Residual|: 2.995e-03   |deigs|: 1.157e-04  t[s]:  25629.12
SCF: Cycle: 22   Etot: -1020.760454064855367   dEtot: -4.201e-06   |Residual|: 2.588e-03   |deigs|: 4.108e-05  t[s]:  25650.07
SCF: Cycle: 23   Etot: -1020.760452099678787   dEtot: +1.965e-06   |Residual|: 2.797e-03   |deigs|: 4.793e-05  t[s]:  25670.94
SCF: Cycle: 24   Etot: -1020.760438762763670   dEtot: +1.334e-05   |Residual|: 4.052e-03   |deigs|: 1.021e-04  t[s]:  25691.93
SCF: Cycle: 25   Etot: -1020.760446060217646   dEtot: -7.297e-06   |Residual|: 3.289e-03   |deigs|: 7.485e-05  t[s]:  25710.80
SCF: Cycle: 26   Etot: -1020.760466118739487   dEtot: -2.006e-05   |Residual|: 1.393e-03   |deigs|: 7.849e-05  t[s]:  25731.78
SCF: Cycle: 27   Etot: -1020.760469868542259   dEtot: -3.750e-06   |Residual|: 1.124e-03   |deigs|: 3.114e-05  t[s]:  25752.78
SCF: Cycle: 28   Etot: -1020.760471865451336   dEtot: -1.997e-06   |Residual|: 3.933e-04   |deigs|: 2.683e-05  t[s]:  25773.74
SCF: Cycle: 29   Etot: -1020.760471241096866   dEtot: +6.244e-07   |Residual|: 9.255e-04   |deigs|: 7.686e-05  t[s]:  25794.92
SCF: Cycle: 30   Etot: -1020.760471700069502   dEtot: -4.590e-07   |Residual|: 5.902e-04   |deigs|: 3.551e-05  t[s]:  25815.92
SCF: Cycle: 31   Etot: -1020.760472129376012   dEtot: -4.293e-07   |Residual|: 2.812e-04   |deigs|: 4.158e-05  t[s]:  25836.88
SCF: Cycle: 32   Etot: -1020.760472043265622   dEtot: +8.611e-08   |Residual|: 3.880e-04   |deigs|: 1.165e-05  t[s]:  25856.63
SCF: Cycle: 33   Etot: -1020.760472143744323   dEtot: -1.005e-07   |Residual|: 3.159e-04   |deigs|: 9.269e-06  t[s]:  25877.56
SCF: Cycle: 34   Etot: -1020.760471957230834   dEtot: +1.865e-07   |Residual|: 4.508e-04   |deigs|: 9.022e-06  t[s]:  25898.45
SCF: Cycle: 35   Etot: -1020.760472259688868   dEtot: -3.025e-07   |Residual|: 2.602e-04   |deigs|: 1.652e-05  t[s]:  25919.60
SCF: Cycle: 36   Etot: -1020.760472409785507   dEtot: -1.501e-07   |Residual|: 9.357e-05   |deigs|: 1.646e-05  t[s]:  25940.50
SCF: Cycle: 37   Etot: -1020.760472433835844   dEtot: -2.405e-08   |Residual|: 6.382e-05   |deigs|: 3.682e-06  t[s]:  25960.91
SCF: Cycle: 38   Etot: -1020.760472446170525   dEtot: -1.233e-08   |Residual|: 3.967e-05   |deigs|: 8.162e-06  t[s]:  25981.96
SCF: Cycle: 39   Etot: -1020.760472451350324   dEtot: -5.180e-09   |Residual|: 3.646e-05   |deigs|: 8.867e-07  t[s]:  26002.87
SCF: Cycle: 40   Etot: -1020.760472469613887   dEtot: -1.826e-08   |Residual|: 4.715e-05   |deigs|: 4.563e-06  t[s]:  26025.64
SCF: Cycle: 41   Etot: -1020.760472525395699   dEtot: -5.578e-08   |Residual|: 2.385e-05   |deigs|: 2.483e-06  t[s]:  26047.71
SCF: Cycle: 42   Etot: -1020.760472603123048   dEtot: -7.773e-08   |Residual|: 3.917e-05   |deigs|: 9.817e-07  t[s]:  26064.73
SCF: Cycle: 43   Etot: -1020.760472631267362   dEtot: -2.814e-08   |Residual|: 3.715e-05   |deigs|: 9.699e-08  t[s]:  26080.23
SCF: Cycle: 44   Etot: -1020.760472661122662   dEtot: -2.986e-08   |Residual|: 3.811e-05   |deigs|: 7.488e-07  t[s]:  26098.75
SCF: Cycle: 45   Etot: -1020.760472755454316   dEtot: -9.433e-08   |Residual|: 1.570e-05   |deigs|: 1.631e-06  t[s]:  26119.03
SCF: Cycle: 46   Etot: -1020.760472868507804   dEtot: -1.131e-07   |Residual|: 9.491e-06   |deigs|: 7.900e-07  t[s]:  26134.84
SCF: Cycle: 47   Etot: -1020.760472944321691   dEtot: -7.581e-08   |Residual|: 1.536e-05   |deigs|: 8.044e-07  t[s]:  26151.36
SCF: Cycle: 48   Etot: -1020.760473036341409   dEtot: -9.202e-08   |Residual|: 1.639e-05   |deigs|: 3.928e-07  t[s]:  26167.43
SCF: Cycle: 49   Etot: -1020.760473203863626   dEtot: -1.675e-07   |Residual|: 3.507e-05   |deigs|: 6.860e-07  t[s]:  26182.41
Calculating stress tensor...  done!

R = 
[    10.7442    5.37209    5.37209  ]
[          0    9.30474    3.10158  ]
[          0          0    8.77259  ]
unit cell volume = 877.012

# Strain Tensor:
[   -0.0134364            0            0  ]
[            0   -0.0134364            0  ]
[            0            0   -0.0134364  ]

# Stress Tensor:
[  4.17879e-06            0            0  ]
[            0  4.17879e-06            0  ]
[            0            0  4.17879e-06  ]


# Ionic positions in lattice coordinates:
ion Co   0.125000000000000   0.125000000000000   0.125000000000000 1
ion Co   0.500000000000000   0.500000000000000   0.500000000000000 1
ion Co   0.125000000000000   0.625000000000000   0.125000000000000 1
ion Co   0.125000000000000   0.125000000000000   0.625000000000000 1
ion Co   0.750000000000000   0.750000000000000   0.750000000000000 1
ion Co   0.625000000000000   0.125000000000000   0.125000000000000 1
ion O   0.364649807419185   0.364649807419185   0.364649807419185 1
ion O   0.343949422257554   0.885350192580815   0.885350192580815 1
ion O   0.364649807419185   0.364649807419185   0.906050577742446 1
ion O   0.906050577742446   0.364649807419185   0.364649807419185 1
ion O   0.364649807419185   0.906050577742446   0.364649807419185 1
ion O   0.885350192580815   0.885350192580815   0.343949422257554 1
ion O   0.885350192580815   0.885350192580815   0.885350192580815 1
ion O   0.885350192580815   0.343949422257554   0.885350192580815 1


# Forces in Lattice coordinates:
force Co   0.000000000000000   0.000000000000000   0.000000000000000 1
force Co  -0.000000000000000  -0.000000000000000  -0.000000000000000 1
force Co  -0.000000000000000  -0.000000000000000   0.000000000000000 1
force Co  -0.000000000000000   0.000000000000000  -0.000000000000000 1
force Co  -0.000000000000000  -0.000000000000000  -0.000000000000000 1
force Co   0.000000000000000  -0.000000000000000   0.000000000000000 1
force O   0.006893165274509   0.006893165274502   0.006893165274524 1
force O   0.006893165274502   0.000000000000000   0.000000000000000 1
force O  -0.000000000000000   0.000000000000000  -0.006893165274531 1
force O  -0.006893165274502   0.000000000000000  -0.000000000000000 1
force O  -0.000000000000000  -0.006893165274516  -0.000000000000000 1
force O   0.000000000000000  -0.000000000000000   0.006893165274495 1
force O  -0.006893165274523  -0.006893165274509  -0.006893165274509 1
force O   0.000000000000000   0.006893165274502   0.000000000000000 1

# Energy components:
   Eewald =     -631.4800766490304795
       EH =      351.0952192489741606
     Eloc =     -976.9312598671151591
      Enl =      174.1175411058163149
      Exc =     -126.9735847130045983
 Exc_core =        3.7842905817228458
       KE =      185.6273970887745293
-------------------------------------
     Etot =    -1020.7604732038622615


Dumping 'Si.wfns' ... done
Dumping 'Si.ionpos' ... done
Dumping 'Si.lattice' ... done
Dumping 'Si.n' ... done
LatticeMinimize: Iter:  10  Etot: -1020.760473203862261  |grad|_K:  2.298e-03  alpha:  1.000e+00  linmin:  3.872e-01  t[s]:  26221.22
LatticeMinimize: None of the convergence criteria satisfied after 10 iterations.

#--- Lowdin population analysis ---
# oxidation-state Co +0.257 +0.261 +0.257 +0.257 +0.261 +0.257
# oxidation-state O -0.170 -0.170 -0.170 -0.170 -0.170 -0.170 -0.170 -0.170

End date and time: Sat Jun  1 07:32:54 2019  (Duration: 0-7:17:13.19)
Done!
