CRYSTAL
PRIMVEC
  5.763004   0.000000   0.000000
  2.881507   4.990914   0.000000
  2.881507   1.663638   4.705481
PRIMCOORD
14 1
27   1.440752   0.831819   0.588185
27   5.763010   3.327276   2.352740
27   2.881506   3.327276   0.588185
27   2.881506   1.663638   2.940925
27   8.644514   4.990914   3.529111
27   4.322255   0.831819   0.588185
 8   4.202961   2.426581   1.715853
 8   7.084468   5.891608   4.165998
 8   5.763011   3.327276   4.263404
 8   7.323056   2.426581   1.715853
 8   5.763011   5.128665   1.715853
 8   8.644513   4.990914   1.618447
 8  10.204563   5.891608   4.165998
 8   8.644513   3.189524   4.165998
BEGIN_BLOCK_DATAGRID_3D
 n
 BEGIN_DATAGRID_3D_n
  55 55 55
    0.000000   0.000000   0.000000
    5.763004   0.000000   0.000000
    2.881507   4.990914   0.000000
    2.881507   1.663638   4.705481
  1.677966e-02 1.719753e-02 1.854260e-02 2.107985e-02 2.511973e-02 3.093807e-02 3.890242e-02 4.890729e-02 6.070317e-02 7.368963e-02 8.629752e-02 9.692744e-02 1.033759e-01 1.045397e-01 1.003119e-01 9.167356e-02 8.015324e-02 6.734829e-02 5.491168e-02 4.353185e-02 3.396161e-02 2.624319e-02 2.035254e-02 1.615530e-02 1.324774e-02 1.136490e-02 1.037066e-02 1.003219e-02 1.037066e-02 1.136490e-02 1.324774e-02 1.615530e-02 2.035254e-02 2.624319e-02 3.396161e-02 4.353185e-02 5.491168e-02 6.734829e-02 8.015324e-02 9.167356e-02 1.003119e-01 1.045397e-01 1.033759e-01 9.692744e-02 8.629752e-02 7.368963e-02 6.070317e-02 4.890729e-02 3.890242e-02 3.093807e-02 2.511973e-02 2.107985e-02 1.854260e-02 1.719753e-02 1.677966e-02
  1.719753e-02 1.801756e-02 1.978488e-02 2.277865e-02 2.730085e-02 3.361534e-02 4.179286e-02 5.189901e-02 6.346024e-02 7.541959e-02 8.626044e-02 9.415181e-02 9.791350e-02 9.707838e-02 9.216919e-02 8.387637e-02 7.332928e-02 6.160883e-02 5.010793e-02 3.978433e-02 3.120814e-02 2.449680e-02 1.936040e-02 1.573862e-02 1.327171e-02 1.181181e-02 1.111821e-02 1.111821e-02 1.181181e-02 1.327171e-02 1.573862e-02 1.936040e-02 2.449680e-02 3.120814e-02 3.978433e-02 5.010793e-02 6.160883e-02 7.332928e-02 8.387637e-02 9.216919e-02 9.707838e-02 9.791350e-02 9.415181e-02 8.626044e-02 7.541959e-02 6.346024e-02 5.189901e-02 4.179286e-02 3.361534e-02 2.730085e-02 2.277865e-02 1.978488e-02 1.801756e-02 1.719753e-02 1.719753e-02
  1.854260e-02 1.978488e-02 2.206977e-02 2.568645e-02 3.091805e-02 3.799182e-02 4.725554e-02 5.858026e-02 7.137641e-02 8.433477e-02 9.508852e-02 1.021918e-01 1.044338e-01 1.023170e-01 9.623314e-02 8.654512e-02 7.450733e-02 6.138602e-02 4.916264e-02 3.868605e-02 3.029857e-02 2.396717e-02 1.924829e-02 1.601043e-02 1.396682e-02 1.279600e-02 1.247576e-02 1.279600e-02 1.396682e-02 1.601043e-02 1.924829e-02 2.396717e-02 3.029857e-02 3.868605e-02 4.916264e-02 6.138602e-02 7.450733e-02 8.654512e-02 9.623314e-02 1.023170e-01 1.044338e-01 1.021918e-01 9.508852e-02 8.433477e-02 7.137641e-02 5.858026e-02 4.725554e-02 3.799182e-02 3.091805e-02 2.568645e-02 2.206977e-02 1.978488e-02 1.854260e-02 1.816549e-02 1.854260e-02
  2.107985e-02 2.277865e-02 2.568645e-02 3.008054e-02 3.636641e-02 4.524199e-02 5.700210e-02 7.211442e-02 8.950352e-02 1.063741e-01 1.195700e-01 1.269113e-01 1.280455e-01 1.237749e-01 1.140329e-01 9.954716e-02 8.224867e-02 6.501885e-02 5.026412e-02 3.888474e-02 3.031559e-02 2.422059e-02 1.989534e-02 1.703994e-02 1.536738e-02 1.460519e-02 1.460519e-02 1.536738e-02 1.703994e-02 1.989534e-02 2.422059e-02 3.031559e-02 3.888474e-02 5.026412e-02 6.501885e-02 8.224867e-02 9.954716e-02 1.140329e-01 1.237749e-01 1.280455e-01 1.269113e-01 1.195700e-01 1.063741e-01 8.950352e-02 7.211442e-02 5.700210e-02 4.524199e-02 3.636641e-02 3.008054e-02 2.568645e-02 2.277865e-02 2.107985e-02 2.030518e-02 2.030518e-02 2.107985e-02
  2.511973e-02 2.730085e-02 3.091805e-02 3.636641e-02 4.474667e-02 5.691843e-02 7.476697e-02 9.788225e-02 1.241351e-01 1.486075e-01 1.672605e-01 1.766222e-01 1.753224e-01 1.637588e-01 1.439072e-01 1.189412e-01 9.271566e-02 6.962378e-02 5.176207e-02 3.949413e-02 3.088345e-02 2.520137e-02 2.137347e-02 1.903659e-02 1.780575e-02 1.743670e-02 1.780575e-02 1.903659e-02 2.137347e-02 2.520137e-02 3.088345e-02 3.949413e-02 5.176207e-02 6.962378e-02 9.271566e-02 1.189412e-01 1.439072e-01 1.637588e-01 1.753224e-01 1.766222e-01 1.672605e-01 1.486075e-01 1.241351e-01 9.788225e-02 7.476697e-02 5.691843e-02 4.474667e-02 3.636641e-02 3.091805e-02 2.730085e-02 2.511973e-02 2.394572e-02 2.360769e-02 2.394572e-02 2.511973e-02
  3.093807e-02 3.361534e-02 3.799182e-02 4.524199e-02 5.691843e-02 7.603704e-02 1.040182e-01 1.406933e-01 1.825288e-01 2.233953e-01 2.536812e-01 2.637313e-01 2.513082e-01 2.197074e-01 1.785353e-01 1.368037e-01 1.001809e-01 7.187448e-02 5.226215e-02 3.999718e-02 3.217068e-02 2.728475e-02 2.422014e-02 2.249662e-02 2.172726e-02 2.172726e-02 2.249662e-02 2.422014e-02 2.728475e-02 3.217068e-02 3.999718e-02 5.226215e-02 7.187448e-02 1.001809e-01 1.368037e-01 1.785353e-01 2.197074e-01 2.513082e-01 2.637313e-01 2.536812e-01 2.233953e-01 1.825288e-01 1.406933e-01 1.040182e-01 7.603704e-02 5.691843e-02 4.524199e-02 3.799182e-02 3.361534e-02 3.093807e-02 2.950801e-02 2.887968e-02 2.887968e-02 2.950801e-02 3.093807e-02
  3.890242e-02 4.179286e-02 4.725554e-02 5.700210e-02 7.476697e-02 1.040182e-01 1.477253e-01 2.065030e-01 2.772577e-01 3.444849e-01 3.854217e-01 3.839490e-01 3.410312e-01 2.733646e-01 2.030201e-01 1.444677e-01 1.005475e-01 7.053451e-02 5.184570e-02 4.121712e-02 3.487865e-02 3.123491e-02 2.905359e-02 2.804263e-02 2.768958e-02 2.804263e-02 2.905359e-02 3.123491e-02 3.487865e-02 4.121712e-02 5.184570e-02 7.053451e-02 1.005475e-01 1.444677e-01 2.030201e-01 2.733646e-01 3.410312e-01 3.839490e-01 3.854217e-01 3.444849e-01 2.772577e-01 2.065030e-01 1.477253e-01 1.040182e-01 7.476697e-02 5.700210e-02 4.725554e-02 4.179286e-02 3.890242e-02 3.729224e-02 3.664711e-02 3.638545e-02 3.664711e-02 3.729224e-02 3.890242e-02
  4.890729e-02 5.189901e-02 5.858026e-02 7.211442e-02 9.788225e-02 1.406933e-01 2.065030e-01 2.999619e-01 4.095090e-01 5.023290e-01 5.381985e-01 4.988787e-01 4.048960e-01 2.958446e-01 2.031375e-01 1.373748e-01 9.387865e-02 6.701686e-02 5.223660e-02 4.427226e-02 4.017858e-02 3.796438e-02 3.688955e-02 3.645546e-02 3.645546e-02 3.688955e-02 3.796438e-02 4.017858e-02 4.427226e-02 5.223660e-02 6.701686e-02 9.387865e-02 1.373748e-01 2.031375e-01 2.958446e-01 4.048960e-01 4.988787e-01 5.381985e-01 5.023290e-01 4.095090e-01 2.999619e-01 2.065030e-01 1.406933e-01 9.788225e-02 7.211442e-02 5.858026e-02 5.189901e-02 4.890729e-02 4.764108e-02 4.728045e-02 4.724410e-02 4.724410e-02 4.728045e-02 4.764108e-02 4.890729e-02
  6.070317e-02 6.346024e-02 7.137641e-02 8.950352e-02 1.241351e-01 1.825288e-01 2.772577e-01 4.095090e-01 5.528651e-01 6.501839e-01 6.477561e-01 5.475454e-01 4.042409e-01 2.730494e-01 1.788882e-01 1.200501e-01 8.432081e-02 6.476212e-02 5.528271e-02 5.098335e-02 4.929078e-02 4.874984e-02 4.874367e-02 4.877315e-02 4.874367e-02 4.874984e-02 4.929078e-02 5.098335e-02 5.528271e-02 6.476212e-02 8.432081e-02 1.200501e-01 1.788882e-01 2.730494e-01 4.042409e-01 5.475454e-01 6.477561e-01 6.501839e-01 5.528651e-01 4.095090e-01 2.772577e-01 1.825288e-01 1.241351e-01 8.950352e-02 7.137641e-02 6.346024e-02 6.070317e-02 6.053780e-02 6.133747e-02 6.225479e-02 6.262866e-02 6.225479e-02 6.133747e-02 6.053780e-02 6.070317e-02
  7.368963e-02 7.541959e-02 8.433477e-02 1.063741e-01 1.486075e-01 2.233953e-01 3.444849e-01 5.023290e-01 6.501839e-01 7.110005e-01 6.456344e-01 4.963856e-01 3.393909e-01 2.191778e-01 1.444311e-01 1.012692e-01 7.776817e-02 6.704846e-02 6.325953e-02 6.293359e-02 6.409373e-02 6.550815e-02 6.643901e-02 6.643901e-02 6.550815e-02 6.409373e-02 6.293359e-02 6.325953e-02 6.704846e-02 7.776817e-02 1.012692e-01 1.444311e-01 2.191778e-01 3.393909e-01 4.963856e-01 6.456344e-01 7.110005e-01 6.501839e-01 5.023290e-01 3.444849e-01 2.233953e-01 1.486075e-01 1.063741e-01 8.433477e-02 7.541959e-02 7.368963e-02 7.563896e-02 7.890850e-02 8.205182e-02 8.394008e-02 8.394008e-02 8.205182e-02 7.890850e-02 7.563896e-02 7.368963e-02
  8.629752e-02 8.626044e-02 9.508852e-02 1.195700e-01 1.672605e-01 2.536812e-01 3.854217e-01 5.381985e-01 6.477561e-01 6.456344e-01 5.333837e-01 3.803707e-01 2.492323e-01 1.630718e-01 1.147496e-01 8.900411e-02 7.832273e-02 7.593139e-02 7.847192e-02 8.284010e-02 8.754992e-02 9.092722e-02 9.230074e-02 9.092722e-02 8.754992e-02 8.284010e-02 7.847192e-02 7.593139e-02 7.832273e-02 8.900411e-02 1.147496e-01 1.630718e-01 2.492323e-01 3.803707e-01 5.333837e-01 6.456344e-01 6.477561e-01 5.381985e-01 3.854217e-01 2.536812e-01 1.672605e-01 1.195700e-01 9.508852e-02 8.626044e-02 8.629752e-02 9.170499e-02 9.901270e-02 1.065185e-01 1.120005e-01 1.141336e-01 1.120005e-01 1.065185e-01 9.901270e-02 9.170499e-02 8.629752e-02
  9.692744e-02 9.415181e-02 1.021918e-01 1.269113e-01 1.766222e-01 2.637313e-01 3.839490e-01 4.988787e-01 5.475454e-01 4.963856e-01 3.803707e-01 2.600866e-01 1.730836e-01 1.229418e-01 9.720993e-02 8.754593e-02 8.795717e-02 9.443454e-02 1.040428e-01 1.144827e-01 1.234534e-01 1.286258e-01 1.286258e-01 1.234534e-01 1.144827e-01 1.040428e-01 9.443454e-02 8.795717e-02 8.754593e-02 9.720993e-02 1.229418e-01 1.730836e-01 2.600866e-01 3.803707e-01 4.963856e-01 5.475454e-01 4.988787e-01 3.839490e-01 2.637313e-01 1.766222e-01 1.269113e-01 1.021918e-01 9.415181e-02 9.692744e-02 1.064511e-01 1.197118e-01 1.339342e-01 1.458988e-01 1.527006e-01 1.527006e-01 1.458988e-01 1.339342e-01 1.197118e-01 1.064511e-01 9.692744e-02
  1.033759e-01 9.791350e-02 1.044338e-01 1.280455e-01 1.753224e-01 2.513082e-01 3.410312e-01 4.048960e-01 4.042409e-01 3.393909e-01 2.492323e-01 1.730836e-01 1.254981e-01 1.012461e-01 9.355340e-02 9.726772e-02 1.087819e-01 1.253377e-01 1.445781e-01 1.626322e-01 1.753838e-01 1.799967e-01 1.753838e-01 1.626322e-01 1.445781e-01 1.253377e-01 1.087819e-01 9.726772e-02 9.355340e-02 1.012461e-01 1.254981e-01 1.730836e-01 2.492323e-01 3.393909e-01 4.042409e-01 4.048960e-01 3.410312e-01 2.513082e-01 1.753224e-01 1.280455e-01 1.044338e-01 9.791350e-02 1.033759e-01 1.173954e-01 1.372636e-01 1.600238e-01 1.811264e-01 1.959883e-01 2.013293e-01 1.959883e-01 1.811264e-01 1.600238e-01 1.372636e-01 1.173954e-01 1.033759e-01
  1.045397e-01 9.707838e-02 1.023170e-01 1.237749e-01 1.637588e-01 2.197074e-01 2.733646e-01 2.958446e-01 2.730494e-01 2.191778e-01 1.630718e-01 1.229418e-01 1.012461e-01 9.560923e-02 1.023965e-01 1.188461e-01 1.432596e-01 1.730121e-01 2.030490e-01 2.278449e-01 2.422075e-01 2.422075e-01 2.278449e-01 2.030490e-01 1.730121e-01 1.432596e-01 1.188461e-01 1.023965e-01 9.560923e-02 1.012461e-01 1.229418e-01 1.630718e-01 2.191778e-01 2.730494e-01 2.958446e-01 2.733646e-01 2.197074e-01 1.637588e-01 1.237749e-01 1.023170e-01 9.707838e-02 1.045397e-01 1.220099e-01 1.478708e-01 1.792071e-01 2.108630e-01 2.370860e-01 2.522356e-01 2.522356e-01 2.370860e-01 2.108630e-01 1.792071e-01 1.478708e-01 1.220099e-01 1.045397e-01
  1.003119e-01 9.216919e-02 9.623314e-02 1.140329e-01 1.439072e-01 1.785353e-01 2.030201e-01 2.031375e-01 1.788882e-01 1.444311e-01 1.147496e-01 9.720993e-02 9.355340e-02 1.023965e-01 1.225367e-01 1.535308e-01 1.935331e-01 2.373282e-01 2.787024e-01 3.095637e-01 3.210929e-01 3.095637e-01 2.787024e-01 2.373282e-01 1.935331e-01 1.535308e-01 1.225367e-01 1.023965e-01 9.355340e-02 9.720993e-02 1.147496e-01 1.444311e-01 1.788882e-01 2.031375e-01 2.030201e-01 1.785353e-01 1.439072e-01 1.140329e-01 9.623314e-02 9.216919e-02 1.003119e-01 1.193363e-01 1.486427e-01 1.866475e-01 2.281555e-01 2.671242e-01 2.961316e-01 3.069696e-01 2.961316e-01 2.671242e-01 2.281555e-01 1.866475e-01 1.486427e-01 1.193363e-01 1.003119e-01
  9.167356e-02 8.387637e-02 8.654512e-02 9.954716e-02 1.189412e-01 1.368037e-01 1.444677e-01 1.373748e-01 1.200501e-01 1.012692e-01 8.900411e-02 8.754593e-02 9.726772e-02 1.188461e-01 1.535308e-01 2.010192e-01 2.573663e-01 3.172668e-01 3.703388e-01 4.018355e-01 4.018355e-01 3.703388e-01 3.172668e-01 2.573663e-01 2.010192e-01 1.535308e-01 1.188461e-01 9.726772e-02 8.754593e-02 8.900411e-02 1.012692e-01 1.200501e-01 1.373748e-01 1.444677e-01 1.368037e-01 1.189412e-01 9.954716e-02 8.654512e-02 8.387637e-02 9.167356e-02 1.099754e-01 1.394334e-01 1.800247e-01 2.280062e-01 2.777868e-01 3.213809e-01 3.472836e-01 3.472836e-01 3.213809e-01 2.777868e-01 2.280062e-01 1.800247e-01 1.394334e-01 1.099754e-01 9.167356e-02
  8.015324e-02 7.332928e-02 7.450733e-02 8.224867e-02 9.271566e-02 1.001809e-01 1.005475e-01 9.387865e-02 8.432081e-02 7.776817e-02 7.832273e-02 8.795717e-02 1.087819e-01 1.432596e-01 1.935331e-01 2.573663e-01 3.316471e-01 4.068530e-01 4.630598e-01 4.838763e-01 4.630598e-01 4.068530e-01 3.316471e-01 2.573663e-01 1.935331e-01 1.432596e-01 1.087819e-01 8.795717e-02 7.832273e-02 7.776817e-02 8.432081e-02 9.387865e-02 1.005475e-01 1.001809e-01 9.271566e-02 8.224867e-02 7.450733e-02 7.332928e-02 8.015324e-02 9.620451e-02 1.226852e-01 1.612385e-01 2.102445e-01 2.648021e-01 3.186693e-01 3.594614e-01 3.748641e-01 3.594614e-01 3.186693e-01 2.648021e-01 2.102445e-01 1.612385e-01 1.226852e-01 9.620451e-02 8.015324e-02
  6.734829e-02 6.160883e-02 6.138602e-02 6.501885e-02 6.962378e-02 7.187448e-02 7.053451e-02 6.701686e-02 6.476212e-02 6.704846e-02 7.593139e-02 9.443454e-02 1.253377e-01 1.730121e-01 2.373282e-01 3.172668e-01 4.068530e-01 4.858169e-01 5.314386e-01 5.314386e-01 4.858169e-01 4.068530e-01 3.172668e-01 2.373282e-01 1.730121e-01 1.253377e-01 9.443454e-02 7.593139e-02 6.704846e-02 6.476212e-02 6.701686e-02 7.053451e-02 7.187448e-02 6.962378e-02 6.501885e-02 6.138602e-02 6.160883e-02 6.734829e-02 8.040881e-02 1.021805e-01 1.349715e-01 1.796070e-01 2.326225e-01 2.886342e-01 3.383656e-01 3.681807e-01 3.681807e-01 3.383656e-01 2.886342e-01 2.326225e-01 1.796070e-01 1.349715e-01 1.021805e-01 8.040881e-02 6.734829e-02
  5.491168e-02 5.010793e-02 4.916264e-02 5.026412e-02 5.176207e-02 5.226215e-02 5.184570e-02 5.223660e-02 5.528271e-02 6.325953e-02 7.847192e-02 1.040428e-01 1.445781e-01 2.030490e-01 2.787024e-01 3.703388e-01 4.630598e-01 5.314386e-01 5.560808e-01 5.314386e-01 4.630598e-01 3.703388e-01 2.787024e-01 2.030490e-01 1.445781e-01 1.040428e-01 7.847192e-02 6.325953e-02 5.528271e-02 5.223660e-02 5.184570e-02 5.226215e-02 5.176207e-02 5.026412e-02 4.916264e-02 5.010793e-02 5.491168e-02 6.492243e-02 8.158879e-02 1.069930e-01 1.432922e-01 1.894532e-01 2.410786e-01 2.911838e-01 3.291381e-01 3.434216e-01 3.291381e-01 2.911838e-01 2.410786e-01 1.894532e-01 1.432922e-01 1.069930e-01 8.158879e-02 6.492243e-02 5.491168e-02
  4.353185e-02 3.978433e-02 3.868605e-02 3.888474e-02 3.949413e-02 3.999718e-02 4.121712e-02 4.427226e-02 5.098335e-02 6.293359e-02 8.284010e-02 1.144827e-01 1.626322e-01 2.278449e-01 3.095637e-01 4.018355e-01 4.838763e-01 5.314386e-01 5.314386e-01 4.838763e-01 4.018355e-01 3.095637e-01 2.278449e-01 1.626322e-01 1.144827e-01 8.284010e-02 6.293359e-02 5.098335e-02 4.427226e-02 4.121712e-02 3.999718e-02 3.949413e-02 3.888474e-02 3.868605e-02 3.978433e-02 4.353185e-02 5.094575e-02 6.308149e-02 8.171592e-02 1.085230e-01 1.447264e-01 1.878537e-01 2.324516e-01 2.706539e-01 2.933923e-01 2.933923e-01 2.706539e-01 2.324516e-01 1.878537e-01 1.447264e-01 1.085230e-01 8.171592e-02 6.308149e-02 5.094575e-02 4.353185e-02
  3.396161e-02 3.120814e-02 3.029857e-02 3.031559e-02 3.088345e-02 3.217068e-02 3.487865e-02 4.017858e-02 4.929078e-02 6.409373e-02 8.754992e-02 1.234534e-01 1.753838e-01 2.422075e-01 3.210929e-01 4.018355e-01 4.630598e-01 4.858169e-01 4.630598e-01 4.018355e-01 3.210929e-01 2.422075e-01 1.753838e-01 1.234534e-01 8.754992e-02 6.409373e-02 4.929078e-02 4.017858e-02 3.487865e-02 3.217068e-02 3.088345e-02 3.031559e-02 3.029857e-02 3.120814e-02 3.396161e-02 3.916914e-02 4.781118e-02 6.087195e-02 7.965560e-02 1.054085e-01 1.381182e-01 1.744432e-01 2.083841e-01 2.328700e-01 2.420244e-01 2.328700e-01 2.083841e-01 1.744432e-01 1.381182e-01 1.054085e-01 7.965560e-02 6.087195e-02 4.781118e-02 3.916914e-02 3.396161e-02
  2.624319e-02 2.449680e-02 2.396717e-02 2.422059e-02 2.520137e-02 2.728475e-02 3.123491e-02 3.796438e-02 4.874984e-02 6.550815e-02 9.092722e-02 1.286258e-01 1.799967e-01 2.422075e-01 3.095637e-01 3.703388e-01 4.068530e-01 4.068530e-01 3.703388e-01 3.095637e-01 2.422075e-01 1.799967e-01 1.286258e-01 9.092722e-02 6.550815e-02 4.874984e-02 3.796438e-02 3.123491e-02 2.728475e-02 2.520137e-02 2.422059e-02 2.396717e-02 2.449680e-02 2.624319e-02 2.974806e-02 3.565889e-02 4.467410e-02 5.746370e-02 7.501155e-02 9.758203e-02 1.243658e-01 1.518288e-01 1.745507e-01 1.875807e-01 1.875807e-01 1.745507e-01 1.518288e-01 1.243658e-01 9.758203e-02 7.501155e-02 5.746370e-02 4.467410e-02 3.565889e-02 2.974806e-02 2.624319e-02
  2.035254e-02 1.936040e-02 1.924829e-02 1.989534e-02 2.137347e-02 2.422014e-02 2.905359e-02 3.688955e-02 4.874367e-02 6.643901e-02 9.230074e-02 1.286258e-01 1.753838e-01 2.278449e-01 2.787024e-01 3.172668e-01 3.316471e-01 3.172668e-01 2.787024e-01 2.278449e-01 1.753838e-01 1.286258e-01 9.230074e-02 6.643901e-02 4.874367e-02 3.688955e-02 2.905359e-02 2.422014e-02 2.137347e-02 1.989534e-02 1.924829e-02 1.936040e-02 2.035254e-02 2.256612e-02 2.654481e-02 3.260689e-02 4.127848e-02 5.300178e-02 6.806365e-02 8.617188e-02 1.060151e-01 1.244855e-01 1.376907e-01 1.425597e-01 1.376907e-01 1.244855e-01 1.060151e-01 8.617188e-02 6.806365e-02 5.300178e-02 4.127848e-02 3.260689e-02 2.654481e-02 2.256612e-02 2.035254e-02
  1.615530e-02 1.573862e-02 1.601043e-02 1.703994e-02 1.903659e-02 2.249662e-02 2.804263e-02 3.645546e-02 4.877315e-02 6.643901e-02 9.092722e-02 1.234534e-01 1.626322e-01 2.030490e-01 2.373282e-01 2.573663e-01 2.573663e-01 2.373282e-01 2.030490e-01 1.626322e-01 1.234534e-01 9.092722e-02 6.643901e-02 4.877315e-02 3.645546e-02 2.804263e-02 2.249662e-02 1.903659e-02 1.703994e-02 1.601043e-02 1.573862e-02 1.615530e-02 1.746936e-02 1.995807e-02 2.390426e-02 2.971237e-02 3.755610e-02 4.753654e-02 5.966873e-02 7.317184e-02 8.653975e-02 9.755003e-02 1.038644e-01 1.038644e-01 9.755003e-02 8.653975e-02 7.317184e-02 5.966873e-02 4.753654e-02 3.755610e-02 2.971237e-02 2.390426e-02 1.995807e-02 1.746936e-02 1.615530e-02
  1.324774e-02 1.327171e-02 1.396682e-02 1.536738e-02 1.780575e-02 2.172726e-02 2.768958e-02 3.645546e-02 4.874367e-02 6.550815e-02 8.754992e-02 1.144827e-01 1.445781e-01 1.730121e-01 1.935331e-01 2.010192e-01 1.935331e-01 1.730121e-01 1.445781e-01 1.144827e-01 8.754992e-02 6.550815e-02 4.874367e-02 3.645546e-02 2.768958e-02 2.172726e-02 1.780575e-02 1.536738e-02 1.396682e-02 1.327171e-02 1.324774e-02 1.389394e-02 1.537777e-02 1.787965e-02 2.169276e-02 2.692037e-02 3.363013e-02 4.172159e-02 5.087772e-02 6.031811e-02 6.865273e-02 7.453220e-02 7.663916e-02 7.453220e-02 6.865273e-02 6.031811e-02 5.087772e-02 4.172159e-02 3.363013e-02 2.692037e-02 2.169276e-02 1.787965e-02 1.537777e-02 1.389394e-02 1.324774e-02
  1.136490e-02 1.181181e-02 1.279600e-02 1.460519e-02 1.743670e-02 2.172726e-02 2.804263e-02 3.688955e-02 4.874984e-02 6.409373e-02 8.284010e-02 1.040428e-01 1.253377e-01 1.432596e-01 1.535308e-01 1.535308e-01 1.432596e-01 1.253377e-01 1.040428e-01 8.284010e-02 6.409373e-02 4.874984e-02 3.688955e-02 2.804263e-02 2.172726e-02 1.743670e-02 1.460519e-02 1.279600e-02 1.181181e-02 1.136490e-02 1.160719e-02 1.239381e-02 1.392606e-02 1.632177e-02 1.972724e-02 2.424071e-02 2.979704e-02 3.608209e-02 4.267587e-02 4.889802e-02 5.380384e-02 5.650770e-02 5.650770e-02 5.380384e-02 4.889802e-02 4.267587e-02 3.608209e-02 2.979704e-02 2.424071e-02 1.972724e-02 1.632177e-02 1.392606e-02 1.239381e-02 1.160719e-02 1.136490e-02
  1.037066e-02 1.111821e-02 1.247576e-02 1.460519e-02 1.780575e-02 2.249662e-02 2.905359e-02 3.796438e-02 4.929078e-02 6.293359e-02 7.847192e-02 9.443454e-02 1.087819e-01 1.188461e-01 1.225367e-01 1.188461e-01 1.087819e-01 9.443454e-02 7.847192e-02 6.293359e-02 4.929078e-02 3.796438e-02 2.905359e-02 2.249662e-02 1.780575e-02 1.460519e-02 1.247576e-02 1.111821e-02 1.037066e-02 1.016954e-02 1.052529e-02 1.138565e-02 1.288094e-02 1.508845e-02 1.810340e-02 2.187376e-02 2.629812e-02 3.105595e-02 3.569249e-02 3.968321e-02 4.233504e-02 4.330930e-02 4.233504e-02 3.968321e-02 3.569249e-02 3.105595e-02 2.629812e-02 2.187376e-02 1.810340e-02 1.508845e-02 1.288094e-02 1.138565e-02 1.052529e-02 1.016954e-02 1.037066e-02
  1.003219e-02 1.111821e-02 1.279600e-02 1.536738e-02 1.903659e-02 2.422014e-02 3.123491e-02 4.017858e-02 5.098335e-02 6.325953e-02 7.593139e-02 8.795717e-02 9.726772e-02 1.023965e-01 1.023965e-01 9.726772e-02 8.795717e-02 7.593139e-02 6.325953e-02 5.098335e-02 4.017858e-02 3.123491e-02 2.422014e-02 1.903659e-02 1.536738e-02 1.279600e-02 1.111821e-02 1.003219e-02 9.513740e-03 9.451128e-03 9.898817e-03 1.081548e-02 1.224173e-02 1.425182e-02 1.681931e-02 1.993696e-02 2.342084e-02 2.698650e-02 3.015658e-02 3.254793e-02 3.389263e-02 3.389263e-02 3.254793e-02 3.015658e-02 2.698650e-02 2.342084e-02 1.993696e-02 1.681931e-02 1.425182e-02 1.224173e-02 1.081548e-02 9.898817e-03 9.451128e-03 9.513740e-03 1.003219e-02
  1.037066e-02 1.181181e-02 1.396682e-02 1.703994e-02 2.137347e-02 2.728475e-02 3.487865e-02 4.427226e-02 5.528271e-02 6.704846e-02 7.832273e-02 8.754593e-02 9.355340e-02 9.560923e-02 9.355340e-02 8.754593e-02 7.832273e-02 6.704846e-02 5.528271e-02 4.427226e-02 3.487865e-02 2.728475e-02 2.137347e-02 1.703994e-02 1.396682e-02 1.181181e-02 1.037066e-02 9.513740e-03 9.114456e-03 9.205111e-03 9.705175e-03 1.060211e-02 1.196363e-02 1.377144e-02 1.604243e-02 1.861906e-02 2.137435e-02 2.394232e-02 2.603217e-02 2.749445e-02 2.795938e-02 2.749445e-02 2.603217e-02 2.394232e-02 2.137435e-02 1.861906e-02 1.604243e-02 1.377144e-02 1.196363e-02 1.060211e-02 9.705175e-03 9.205111e-03 9.114456e-03 9.513740e-03 1.037066e-02
  1.136490e-02 1.327171e-02 1.601043e-02 1.989534e-02 2.520137e-02 3.217068e-02 4.121712e-02 5.223660e-02 6.476212e-02 7.776817e-02 8.900411e-02 9.720993e-02 1.012461e-01 1.012461e-01 9.720993e-02 8.900411e-02 7.776817e-02 6.476212e-02 5.223660e-02 4.121712e-02 3.217068e-02 2.520137e-02 1.989534e-02 1.601043e-02 1.327171e-02 1.136490e-02 1.016954e-02 9.451128e-03 9.205111e-03 9.348722e-03 9.879185e-03 1.080248e-02 1.210246e-02 1.379320e-02 1.576897e-02 1.793834e-02 2.004288e-02 2.197813e-02 2.338979e-02 2.411751e-02 2.411751e-02 2.338979e-02 2.197813e-02 2.004288e-02 1.793834e-02 1.576897e-02 1.379320e-02 1.210246e-02 1.080248e-02 9.879185e-03 9.348722e-03 9.205111e-03 9.451128e-03 1.016954e-02 1.136490e-02
  1.324774e-02 1.573862e-02 1.924829e-02 2.422059e-02 3.088345e-02 3.999718e-02 5.184570e-02 6.701686e-02 8.432081e-02 1.012692e-01 1.147496e-01 1.229418e-01 1.254981e-01 1.229418e-01 1.147496e-01 1.012692e-01 8.432081e-02 6.701686e-02 5.184570e-02 3.999718e-02 3.088345e-02 2.422059e-02 1.924829e-02 1.573862e-02 1.324774e-02 1.160719e-02 1.052529e-02 9.898817e-03 9.705175e-03 9.879185e-03 1.042667e-02 1.135031e-02 1.262917e-02 1.423335e-02 1.606927e-02 1.787127e-02 1.958824e-02 2.098673e-02 2.183203e-02 2.217987e-02 2.183203e-02 2.098673e-02 1.958824e-02 1.787127e-02 1.606927e-02 1.423335e-02 1.262917e-02 1.135031e-02 1.042667e-02 9.879185e-03 9.705175e-03 9.898817e-03 1.052529e-02 1.160719e-02 1.324774e-02
  1.615530e-02 1.936040e-02 2.396717e-02 3.031559e-02 3.949413e-02 5.226215e-02 7.053451e-02 9.387865e-02 1.200501e-01 1.444311e-01 1.630718e-01 1.730836e-01 1.730836e-01 1.630718e-01 1.444311e-01 1.200501e-01 9.387865e-02 7.053451e-02 5.226215e-02 3.949413e-02 3.031559e-02 2.396717e-02 1.936040e-02 1.615530e-02 1.389394e-02 1.239381e-02 1.138565e-02 1.081548e-02 1.060211e-02 1.080248e-02 1.135031e-02 1.231876e-02 1.358847e-02 1.510485e-02 1.669440e-02 1.835645e-02 1.969066e-02 2.072300e-02 2.126594e-02 2.126594e-02 2.072300e-02 1.969066e-02 1.835645e-02 1.669440e-02 1.510485e-02 1.358847e-02 1.231876e-02 1.135031e-02 1.080248e-02 1.060211e-02 1.081548e-02 1.138565e-02 1.239381e-02 1.389394e-02 1.615530e-02
  2.035254e-02 2.449680e-02 3.029857e-02 3.888474e-02 5.176207e-02 7.187448e-02 1.005475e-01 1.373748e-01 1.788882e-01 2.191778e-01 2.492323e-01 2.600866e-01 2.492323e-01 2.191778e-01 1.788882e-01 1.373748e-01 1.005475e-01 7.187448e-02 5.176207e-02 3.888474e-02 3.029857e-02 2.449680e-02 2.035254e-02 1.746936e-02 1.537777e-02 1.392606e-02 1.288094e-02 1.224173e-02 1.196363e-02 1.210246e-02 1.262917e-02 1.358847e-02 1.483634e-02 1.624652e-02 1.775618e-02 1.912287e-02 2.021123e-02 2.092830e-02 2.114247e-02 2.092830e-02 2.021123e-02 1.912287e-02 1.775618e-02 1.624652e-02 1.483634e-02 1.358847e-02 1.262917e-02 1.210246e-02 1.196363e-02 1.224173e-02 1.288094e-02 1.392606e-02 1.537777e-02 1.746936e-02 2.035254e-02
  2.624319e-02 3.120814e-02 3.868605e-02 5.026412e-02 6.962378e-02 1.001809e-01 1.444677e-01 2.031375e-01 2.730494e-01 3.393909e-01 3.803707e-01 3.803707e-01 3.393909e-01 2.730494e-01 2.031375e-01 1.444677e-01 1.001809e-01 6.962378e-02 5.026412e-02 3.868605e-02 3.120814e-02 2.624319e-02 2.256612e-02 1.995807e-02 1.787965e-02 1.632177e-02 1.508845e-02 1.425182e-02 1.377144e-02 1.379320e-02 1.423335e-02 1.510485e-02 1.624652e-02 1.762162e-02 1.887135e-02 2.005387e-02 2.085414e-02 2.132787e-02 2.132787e-02 2.085414e-02 2.005387e-02 1.887135e-02 1.762162e-02 1.624652e-02 1.510485e-02 1.423335e-02 1.379320e-02 1.377144e-02 1.425182e-02 1.508845e-02 1.632177e-02 1.787965e-02 1.995807e-02 2.256612e-02 2.624319e-02
  3.396161e-02 3.978433e-02 4.916264e-02 6.501885e-02 9.271566e-02 1.368037e-01 2.030201e-01 2.958446e-01 4.042409e-01 4.963856e-01 5.333837e-01 4.963856e-01 4.042409e-01 2.958446e-01 2.030201e-01 1.368037e-01 9.271566e-02 6.501885e-02 4.916264e-02 3.978433e-02 3.396161e-02 2.974806e-02 2.654481e-02 2.390426e-02 2.169276e-02 1.972724e-02 1.810340e-02 1.681931e-02 1.604243e-02 1.576897e-02 1.606927e-02 1.669440e-02 1.775618e-02 1.887135e-02 2.002348e-02 2.087942e-02 2.149087e-02 2.166636e-02 2.149087e-02 2.087942e-02 2.002348e-02 1.887135e-02 1.775618e-02 1.669440e-02 1.606927e-02 1.576897e-02 1.604243e-02 1.681931e-02 1.810340e-02 1.972724e-02 2.169276e-02 2.390426e-02 2.654481e-02 2.974806e-02 3.396161e-02
  4.353185e-02 5.010793e-02 6.138602e-02 8.224867e-02 1.189412e-01 1.785353e-01 2.733646e-01 4.048960e-01 5.475454e-01 6.456344e-01 6.456344e-01 5.475454e-01 4.048960e-01 2.733646e-01 1.785353e-01 1.189412e-01 8.224867e-02 6.138602e-02 5.010793e-02 4.353185e-02 3.916914e-02 3.565889e-02 3.260689e-02 2.971237e-02 2.692037e-02 2.424071e-02 2.187376e-02 1.993696e-02 1.861906e-02 1.793834e-02 1.787127e-02 1.835645e-02 1.912287e-02 2.005387e-02 2.087942e-02 2.155727e-02 2.188448e-02 2.188448e-02 2.155727e-02 2.087942e-02 2.005387e-02 1.912287e-02 1.835645e-02 1.787127e-02 1.793834e-02 1.861906e-02 1.993696e-02 2.187376e-02 2.424071e-02 2.692037e-02 2.971237e-02 3.260689e-02 3.565889e-02 3.916914e-02 4.353185e-02
  5.491168e-02 6.160883e-02 7.450733e-02 9.954716e-02 1.439072e-01 2.197074e-01 3.410312e-01 4.988787e-01 6.477561e-01 7.110005e-01 6.477561e-01 4.988787e-01 3.410312e-01 2.197074e-01 1.439072e-01 9.954716e-02 7.450733e-02 6.160883e-02 5.491168e-02 5.094575e-02 4.781118e-02 4.467410e-02 4.127848e-02 3.755610e-02 3.363013e-02 2.979704e-02 2.629812e-02 2.342084e-02 2.137435e-02 2.004288e-02 1.958824e-02 1.969066e-02 2.021123e-02 2.085414e-02 2.149087e-02 2.188448e-02 2.207390e-02 2.188448e-02 2.149087e-02 2.085414e-02 2.021123e-02 1.969066e-02 1.958824e-02 2.004288e-02 2.137435e-02 2.342084e-02 2.629812e-02 2.979704e-02 3.363013e-02 3.755610e-02 4.127848e-02 4.467410e-02 4.781118e-02 5.094575e-02 5.491168e-02
  6.734829e-02 7.332928e-02 8.654512e-02 1.140329e-01 1.637588e-01 2.513082e-01 3.839490e-01 5.381985e-01 6.501839e-01 6.501839e-01 5.381985e-01 3.839490e-01 2.513082e-01 1.637588e-01 1.140329e-01 8.654512e-02 7.332928e-02 6.734829e-02 6.492243e-02 6.308149e-02 6.087195e-02 5.746370e-02 5.300178e-02 4.753654e-02 4.172159e-02 3.608209e-02 3.105595e-02 2.698650e-02 2.394232e-02 2.197813e-02 2.098673e-02 2.072300e-02 2.092830e-02 2.132787e-02 2.166636e-02 2.188448e-02 2.188448e-02 2.166636e-02 2.132787e-02 2.092830e-02 2.072300e-02 2.098673e-02 2.197813e-02 2.394232e-02 2.698650e-02 3.105595e-02 3.608209e-02 4.172159e-02 4.753654e-02 5.300178e-02 5.746370e-02 6.087195e-02 6.308149e-02 6.492243e-02 6.734829e-02
  8.015324e-02 8.387637e-02 9.623314e-02 1.237749e-01 1.753224e-01 2.637313e-01 3.854217e-01 5.023290e-01 5.528651e-01 5.023290e-01 3.854217e-01 2.637313e-01 1.753224e-01 1.237749e-01 9.623314e-02 8.387637e-02 8.015324e-02 8.040881e-02 8.158879e-02 8.171592e-02 7.965560e-02 7.501155e-02 6.806365e-02 5.966873e-02 5.087772e-02 4.267587e-02 3.569249e-02 3.015658e-02 2.603217e-02 2.338979e-02 2.183203e-02 2.126594e-02 2.114247e-02 2.132787e-02 2.149087e-02 2.155727e-02 2.149087e-02 2.132787e-02 2.114247e-02 2.126594e-02 2.183203e-02 2.338979e-02 2.603217e-02 3.015658e-02 3.569249e-02 4.267587e-02 5.087772e-02 5.966873e-02 6.806365e-02 7.501155e-02 7.965560e-02 8.171592e-02 8.158879e-02 8.040881e-02 8.015324e-02
  9.167356e-02 9.216919e-02 1.023170e-01 1.280455e-01 1.766222e-01 2.536812e-01 3.444849e-01 4.095090e-01 4.095090e-01 3.444849e-01 2.536812e-01 1.766222e-01 1.280455e-01 1.023170e-01 9.216919e-02 9.167356e-02 9.620451e-02 1.021805e-01 1.069930e-01 1.085230e-01 1.054085e-01 9.758203e-02 8.617188e-02 7.317184e-02 6.031811e-02 4.889802e-02 3.968321e-02 3.254793e-02 2.749445e-02 2.411751e-02 2.217987e-02 2.126594e-02 2.092830e-02 2.085414e-02 2.087942e-02 2.087942e-02 2.085414e-02 2.092830e-02 2.126594e-02 2.217987e-02 2.411751e-02 2.749445e-02 3.254793e-02 3.968321e-02 4.889802e-02 6.031811e-02 7.317184e-02 8.617188e-02 9.758203e-02 1.054085e-01 1.085230e-01 1.069930e-01 1.021805e-01 9.620451e-02 9.167356e-02