
*************** JDFTx 1.4.2  ***************

Start date and time: Sat Jul 13 23:41:24 2019
Executable jdftx with command-line: -ni testgeometry.in
Running on hosts (process indices):  Juans-MBP.lan1 (0)
Divided in process groups (process indices):  0 (0)
Resource initialization completed at t[s]:      0.00
Run totals: 1 processes, 12 threads, 0 GPUs


Input parsed successfully to the following command list (including defaults):

basis kpoint-dependent
coords-type Lattice
core-overlap-check vector
coulomb-interaction Periodic
davidson-band-ratio 1.1
dump End State
dump-name $INPUT.$VAR
elec-cutoff 20
elec-eigen-algo Davidson
elec-ex-corr gga-PBE
electronic-minimize  \
	dirUpdateScheme      FletcherReeves \
	linminMethod         DirUpdateRecommended \
	nIterations          100 \
	history              15 \
	knormThreshold       0 \
	energyDiffThreshold  1e-08 \
	nEnergyDiff          2 \
	alphaTstart          1 \
	alphaTmin            1e-10 \
	updateTestStepSize   yes \
	alphaTreduceFactor   0.1 \
	alphaTincreaseFactor 3 \
	nAlphaAdjustMax      3 \
	wolfeEnergy          0.0001 \
	wolfeGradient        0.9 \
	fdTest               no
exchange-regularization WignerSeitzTruncated
fluid None
fluid-ex-corr lda-TF lda-PZ
fluid-gummel-loop 10 1.000000e-05
fluid-minimize  \
	dirUpdateScheme      PolakRibiere \
	linminMethod         DirUpdateRecommended \
	nIterations          100 \
	history              15 \
	knormThreshold       0 \
	energyDiffThreshold  0 \
	nEnergyDiff          2 \
	alphaTstart          1 \
	alphaTmin            1e-10 \
	updateTestStepSize   yes \
	alphaTreduceFactor   0.1 \
	alphaTincreaseFactor 3 \
	nAlphaAdjustMax      3 \
	wolfeEnergy          0.0001 \
	wolfeGradient        0.9 \
	fdTest               no
fluid-solvent H2O 55.338 ScalarEOS \
	epsBulk 78.4 \
	pMol 0.92466 \
	epsInf 1.77 \
	Pvap 1.06736e-10 \
	sigmaBulk 4.62e-05 \
	Rvdw 2.61727 \
	Res 1.42
forces-output-coords Positions
ion O   0.083330000000000   0.250000000000000   0.233960000000000 1
ion O   0.333330000000000   0.000000000000000   0.034790000000000 1
ion O   0.833330000000000   0.500000000000000   0.034790000000000 1
ion O   0.592500000000000   0.777510000000000   0.039370000000000 1
ion O   0.092500000000000   0.277510000000000   0.039370000000000 1
ion O   0.092500000000000   0.722490000000000   0.039370000000000 1
ion O   0.592500000000000   0.222490000000000   0.039370000000000 1
ion O   0.314990000000000   0.500000000000000   0.039370000000000 1
ion O   0.814990000000000   0.000000000000000   0.039370000000000 1
ion O   0.740830000000000   0.777510000000000   0.127290000000000 1
ion O   0.240830000000000   0.277510000000000   0.127290000000000 1
ion O   0.240830000000000   0.722490000000000   0.127290000000000 1
ion O   0.740830000000000   0.222490000000000   0.127290000000000 1
ion O   0.518340000000000   0.000000000000000   0.127290000000000 1
ion O   0.018340000000000   0.500000000000000   0.127290000000000 1
ion O   0.000000000000000   0.000000000000000   0.131880000000000 1
ion O   0.500000000000000   0.500000000000000   0.131880000000000 1
ion O   0.000000000000000   0.000000000000000   0.868120000000000 1
ion O   0.500000000000000   0.500000000000000   0.868120000000000 1
ion O   0.259170000000000   0.777510000000000   0.872710000000000 1
ion O   0.759170000000000   0.277510000000000   0.872710000000000 1
ion O   0.259170000000000   0.222490000000000   0.872710000000000 1
ion O   0.481660000000000   0.000000000000000   0.872710000000000 1
ion O   0.981660000000000   0.500000000000000   0.872710000000000 1
ion O   0.759170000000000   0.722490000000000   0.872710000000000 1
ion O   0.407500000000000   0.777510000000000   0.960630000000000 1
ion O   0.907500000000000   0.722490000000000   0.960630000000000 1
ion O   0.185000000000000   0.000000000000000   0.960630000000000 1
ion O   0.907500000000000   0.277510000000000   0.960630000000000 1
ion O   0.685000000000000   0.500000000000000   0.960630000000000 1
ion O   0.407500000000000   0.222490000000000   0.960630000000000 1
ion O   0.166670000000000   0.500000000000000   0.965210000000000 1
ion O   0.666670000000000   0.000000000000000   0.965210000000000 1
ion H   0.083330000000000   0.250000000000000   0.268670000000000 1
ion Co   0.500000000000000   0.000000000000000   0.000000000000000 1
ion Co   0.000000000000000   0.500000000000000   0.000000000000000 1
ion Co   0.750000000000000   0.750000000000000   0.000000000000000 1
ion Co   0.250000000000000   0.250000000000000   0.000000000000000 1
ion Co   0.750000000000000   0.250000000000000   0.000000000000000 1
ion Co   0.250000000000000   0.750000000000000   0.000000000000000 1
ion Co   0.000000000000000   0.000000000000000   0.062500000000000 1
ion Co   0.500000000000000   0.500000000000000   0.062500000000000 1
ion Co   0.666670000000000   0.000000000000000   0.083330000000000 1
ion Co   0.166670000000000   0.500000000000000   0.083330000000000 1
ion Co   0.333330000000000   0.000000000000000   0.104170000000000 1
ion Co   0.833330000000000   0.500000000000000   0.104170000000000 1
ion Co   0.833330000000000   0.000000000000000   0.166670000000000 1
ion Co   0.333330000000000   0.500000000000000   0.166670000000000 1
ion Co   0.583330000000000   0.250000000000000   0.166670000000000 1
ion Co   0.083330000000000   0.750000000000000   0.166670000000000 1
ion Co   0.583330000000000   0.750000000000000   0.166670000000000 1
ion Co   0.083330000000000   0.250000000000000   0.166670000000000 1
ion Co   0.166670000000000   0.000000000000000   0.833330000000000 1
ion Co   0.666670000000000   0.500000000000000   0.833330000000000 1
ion Co   0.916670000000000   0.250000000000000   0.833330000000000 1
ion Co   0.916670000000000   0.750000000000000   0.833330000000000 1
ion Co   0.416670000000000   0.250000000000000   0.833330000000000 1
ion Co   0.416670000000000   0.750000000000000   0.833330000000000 1
ion Co   0.166670000000000   0.500000000000000   0.895830000000000 1
ion Co   0.666670000000000   0.000000000000000   0.895830000000000 1
ion Co   0.333330000000000   0.000000000000000   0.916670000000000 1
ion Co   0.833330000000000   0.500000000000000   0.916670000000000 1
ion Co   0.500000000000000   0.500000000000000   0.937500000000000 1
ion Co   0.000000000000000   0.000000000000000   0.937500000000000 1
ion-species GBRV/$ID_pbe.uspp
ion-width 0
ionic-minimize  \
	dirUpdateScheme      L-BFGS \
	linminMethod         DirUpdateRecommended \
	nIterations          0 \
	history              15 \
	knormThreshold       0.0001 \
	energyDiffThreshold  1e-06 \
	nEnergyDiff          2 \
	alphaTstart          1 \
	alphaTmin            1e-10 \
	updateTestStepSize   yes \
	alphaTreduceFactor   0.1 \
	alphaTincreaseFactor 3 \
	nAlphaAdjustMax      3 \
	wolfeEnergy          0.0001 \
	wolfeGradient        0.9 \
	fdTest               no
kpoint   0.000000000000   0.000000000000   0.000000000000  1.00000000000000
kpoint-folding 1 1 1 
latt-move-scale 1 1 1
latt-scale 1 1 1 
lattice Triclinic 18.8638 10.891 53.3548 90 90 90
lattice-minimize  \
	dirUpdateScheme      L-BFGS \
	linminMethod         DirUpdateRecommended \
	nIterations          0 \
	history              15 \
	knormThreshold       0 \
	energyDiffThreshold  1e-06 \
	nEnergyDiff          2 \
	alphaTstart          1 \
	alphaTmin            1e-10 \
	updateTestStepSize   yes \
	alphaTreduceFactor   0.1 \
	alphaTincreaseFactor 3 \
	nAlphaAdjustMax      3 \
	wolfeEnergy          0.0001 \
	wolfeGradient        0.9 \
	fdTest               no
lcao-params -1 1e-06 0.001
pcm-variant GLSSA13
spintype no-spin
subspace-rotation-factor 1 yes
symmetries automatic
symmetry-threshold 0.0001



---------- Setting up symmetries ----------

Found 8 point-group symmetries of the bravais lattice
Found 1 space-group symmetries with basis
Applied RMS atom displacement 0 bohrs to make symmetries exact.

---------- Initializing the Grid ----------
R = 
[    18.8638          0          0  ]
[          0     10.891          0  ]
[          0          0    53.3548  ]
unit cell volume = 10961.5
G =
[   0.333082          0          0  ]
[          0   0.576915          0  ]
[          0          0   0.117762  ]
Minimum fftbox size, Smin = [  76  44  216  ]
Chosen fftbox size, S = [  80  48  216  ]

---------- Exchange Correlation functional ----------
Initalized PBE GGA exchange.
Initalized PBE GGA correlation.

---------- Setting up pseudopotentials ----------
Width of ionic core gaussian charges (only for fluid interactions / plotting) set to 0

Reading pseudopotential file '/Users/juanmendezvalderrama/Documents/JDFTX/build/pseudopotentials/GBRV/o_pbe.uspp':
  Title: O.  Created by USPP 7.3.6 on 3-2-2014
  Reference state energy: -15.894388.  6 valence electrons in orbitals:
    |200>  occupation: 2  eigenvalue: -0.878823
    |210>  occupation: 4  eigenvalue: -0.332131
  lMax: 2  lLocal: 2  QijEcut: 6
  5 projectors sampled on a log grid with 511 points:
    l: 0  eig: -0.878823  rCut: 1.25
    l: 0  eig: 0.000000  rCut: 1.25
    l: 1  eig: -0.332132  rCut: 1.25
    l: 1  eig: 0.000000  rCut: 1.25
    l: 2  eig: 1.000000  rCut: 1.25
  Partial core density with radius 0.7
  Transforming core density to a uniform radial grid of dG=0.02 with 1158 points.
  Transforming local potential to a uniform radial grid of dG=0.02 with 1158 points.
  Transforming nonlocal projectors to a uniform radial grid of dG=0.02 with 432 points.
  Transforming density augmentations to a uniform radial grid of dG=0.02 with 1158 points.
  Transforming atomic orbitals to a uniform radial grid of dG=0.02 with 432 points.
  Core radius for overlap checks: 1.25 bohrs.

Reading pseudopotential file '/Users/juanmendezvalderrama/Documents/JDFTX/build/pseudopotentials/GBRV/h_pbe.uspp':
  Title: H.  Created by USPP 7.3.6 on 2-4-15
  Reference state energy: -0.458849.  1 valence electrons in orbitals:
    |100>  occupation: 1  eigenvalue: -0.238595
  lMax: 0  lLocal: 1  QijEcut: 6
  2 projectors sampled on a log grid with 395 points:
    l: 0  eig: -0.238595  rCut: 1.2
    l: 0  eig: 1.000000  rCut: 1.2
  Transforming local potential to a uniform radial grid of dG=0.02 with 1158 points.
  Transforming nonlocal projectors to a uniform radial grid of dG=0.02 with 432 points.
  Transforming density augmentations to a uniform radial grid of dG=0.02 with 1158 points.
  Transforming atomic orbitals to a uniform radial grid of dG=0.02 with 432 points.
  Core radius for overlap checks: 1.20 bohrs.

Reading pseudopotential file '/Users/juanmendezvalderrama/Documents/JDFTX/build/pseudopotentials/GBRV/co_pbe.uspp':
  Title: Co.  Created by USPP 7.3.6 on 3-2-2014
  Reference state energy: -148.607580.  17 valence electrons in orbitals:
    |300>  occupation: 2  eigenvalue: -4.087341
    |310>  occupation: 6  eigenvalue: -2.736774
    |320>  occupation: 7  eigenvalue: -0.623250
    |400>  occupation: 1  eigenvalue: -0.469021
    |410>  occupation: 0  eigenvalue: -0.274428
  lMax: 2  lLocal: 3  QijEcut: 6
  6 projectors sampled on a log grid with 609 points:
    l: 0  eig: -4.087343  rCut: 1.5
    l: 0  eig: -0.469023  rCut: 1.5
    l: 1  eig: -2.736775  rCut: 1.5
    l: 1  eig: -0.274432  rCut: 1.5
    l: 2  eig: -0.623250  rCut: 1.55
    l: 2  eig: -1.000000  rCut: 1.55
  Partial core density with radius 0.65
  Transforming core density to a uniform radial grid of dG=0.02 with 1158 points.
  Transforming local potential to a uniform radial grid of dG=0.02 with 1158 points.
  Transforming nonlocal projectors to a uniform radial grid of dG=0.02 with 432 points.
  Transforming density augmentations to a uniform radial grid of dG=0.02 with 1158 points.
  Transforming atomic orbitals to a uniform radial grid of dG=0.02 with 432 points.
  Core radius for overlap checks: 1.55 bohrs.

Initialized 3 species with 64 total atoms.

Folded 1 k-points by 1x1x1 to 1 k-points.

---------- Setting up k-points, bands, fillings ----------
No reducable k-points. 
Computing the number of bands and number of electrons
Calculating initial fillings.
Turning on subspace rotations due to non-scalar fillings.
nElectrons: 709.000000   nBands: 355   nStates: 1

----- Setting up reduced wavefunction bases (one per k-point) -----
average nbasis = 46607.000 , ideal nbasis = 46828.344

---------- Setting up ewald sum ----------
Optimum gaussian width for ewald sums = 4.431016 bohr.
Real space sum over 495 unit cells with max indices [  4  5  2  ]
Reciprocal space sum over 7667 terms with max indices [  8  5  20  ]

---------- Allocating electronic variables ----------
Skipped wave function initialization.


---- Citations for features of the code used in this run ----

   Software package:
      R. Sundararaman, K. Letchworth-Weaver, K.A. Schwarz, D. Gunceler, Y. Ozhabes and T.A. Arias, 'JDFTx: software for joint density-functional theory', SoftwareX 6, 278 (2017)

   gga-PBE exchange-correlation functional:
      J.P. Perdew, K. Burke and M. Ernzerhof, Phys. Rev. Lett. 77, 3865 (1996)

   Pseudopotentials:
      KF Garrity, JW Bennett, KM Rabe and D Vanderbilt, Comput. Mater. Sci. 81, 446 (2014)

   Total energy minimization:
      T.A. Arias, M.C. Payne and J.D. Joannopoulos, Phys. Rev. Lett. 69, 1077 (1992)

This list may not be complete. Please suggest additional citations or
report any other bugs at https://github.com/shankar1729/jdftx/issues

Dry run successful: commands are valid and initialization succeeded.
End date and time: Sat Jul 13 23:41:26 2019  (Duration: 0-0:00:01.83)
Done!
