CRYSTAL
PRIMVEC
  9.982293   0.000000   0.000000
  0.000000   5.763269   0.000000
  0.000000   0.000000  21.175661
PRIMCOORD
37 1
 8   2.079611   2.161226   4.253131
 8   3.243946   2.161226   5.010373
 8   7.395182   4.480999   1.241105
 8   2.404036   1.599365   1.241105
 8   2.404036   4.163904   1.241105
 8   7.395182   1.282270   1.241105
 8   5.174222   0.000000   1.241105
 8   0.183075   2.881634   1.241105
 8   0.000000   0.000000   1.370701
 8   4.991146   2.881634   1.370701
 8   3.327398   0.000000  19.805172
 8   8.318544   2.881634  19.805172
 8   0.923362   1.599365  19.934343
 8   5.914509   4.480999  19.934343
 8   3.144322   2.881634  19.934343
 8   8.135469   0.000000  19.934343
 8   5.914509   1.282270  19.934343
 8   0.923362   4.163904  19.934343
 1   1.338426   2.161226   5.010373
27   3.327398   0.000000   0.588260
27   8.318544   2.881634   0.588260
27   8.318544   0.000000   2.353039
27   3.327398   2.881634   2.353039
27   5.822971   1.440817   2.353039
27   0.831824   4.322452   2.353039
27   5.822971   4.322452   2.353039
27   0.831824   1.440817   2.353039
27   4.991146   0.000000  18.822833
27   0.000000   2.881634  18.822833
27   2.495573   1.440817  18.822833
27   7.486720   4.322452  18.822833
27   2.495573   4.322452  18.822833
27   7.486720   1.440817  18.822833
27   0.000000   0.000000  20.587401
27   4.991146   2.881634  20.587401
27   6.654895   0.000000  21.175661
27   1.663749   2.881634  21.175661
