CRYSTAL
PRIMVEC
  9.982293   0.000000   0.000000
  0.000000   5.763269   0.000000
  0.000000   0.000000  28.234144
PRIMCOORD
64 1
 7   3.327398   2.881634   6.695786
 8   3.327398   2.881634   7.845786
 8   3.327398   0.000000   0.982266
 8   8.318544   2.881634   0.982266
 8   5.914509   4.480999   1.111578
 8   0.923362   1.599365   1.111578
 8   0.923362   4.163904   1.111578
 8   5.914509   1.282270   1.111578
 8   3.144322   2.881634   1.111578
 8   8.135469   0.000000   1.111578
 8   7.395182   4.480999   3.593924
 8   2.404036   1.599365   3.593924
 8   2.404036   4.163904   3.593924
 8   7.395182   1.282270   3.593924
 8   5.174222   0.000000   3.593924
 8   0.183075   2.881634   3.593924
 8   0.000000   0.000000   3.723519
 8   4.991146   2.881634   3.723519
 8   0.000000   0.000000  24.510625
 8   4.991146   2.881634  24.510625
 8   2.587111   4.480999  24.640220
 8   7.578257   1.599365  24.640220
 8   2.587111   1.282270  24.640220
 8   4.808071   0.000000  24.640220
 8   9.799218   2.881634  24.640220
 8   7.578257   4.163904  24.640220
 8   4.067784   4.480999  27.122565
 8   9.058931   4.163904  27.122565
 8   1.846724   0.000000  27.122565
 8   9.058931   1.599365  27.122565
 8   6.837871   2.881634  27.122565
 8   4.067784   1.282270  27.122565
 8   1.663749   2.881634  27.251878
 8   6.654895   0.000000  27.251878
27   4.991146   0.000000   0.000000
27   0.000000   2.881634   0.000000
27   7.486720   4.322452   0.000000
27   2.495573   1.440817   0.000000
27   7.486720   1.440817   0.000000
27   2.495573   4.322452   0.000000
27   0.000000   0.000000   1.764634
27   4.991146   2.881634   1.764634
27   6.654895   0.000000   2.352751
27   1.663749   2.881634   2.352751
27   3.327398   0.000000   2.941151
27   8.318544   2.881634   2.941151
27   8.318544   0.000000   4.705785
27   3.327398   2.881634   4.705785
27   5.822971   1.440817   4.705785
27   0.831824   4.322452   4.705785
27   5.822971   4.322452   4.705785
27   0.831824   1.440817   4.705785
27   1.663749   0.000000  23.528359
27   6.654895   2.881634  23.528359
27   9.150468   1.440817  23.528359
27   9.150468   4.322452  23.528359
27   4.159322   1.440817  23.528359
27   4.159322   4.322452  23.528359
27   1.663749   2.881634  25.292993
27   6.654895   0.000000  25.292993
27   3.327398   0.000000  25.881392
27   8.318544   2.881634  25.881392
27   4.991146   2.881634  26.469510
27   0.000000   0.000000  26.469510
